LAMMPS (7 Feb 2024 - Development - patch_7Feb2024_update1-220-g3d8d41905b)
  using 12 OpenMP thread(s) per MPI task
Reading data file ...
  orthogonal box = (0 0 0) to (26.190141 26.190141 26.190141)
  2 by 1 by 2 MPI processor grid
  reading atoms ...
  1705 atoms
  scanning bonds ...
  2 = max bonds/atom
  scanning angles ...
  1 = max angles/atom
  reading bonds ...
  1110 bonds
  reading angles ...
  555 angles
Finding 1-2 1-3 1-4 neighbors ...
  special bond factors lj:    0        0        0       
  special bond factors coul:  0        0        0       
     2 = max # of 1-2 neighbors
     1 = max # of 1-3 neighbors
     1 = max # of 1-4 neighbors
     2 = max # of special neighbors
  special bonds CPU = 0.001 seconds
  read_data CPU = 0.038 seconds
Setting atom values ...
  555 settings made for charge
Setting atom values ...
  1110 settings made for charge
Setting atom values ...
  20 settings made for charge
Setting atom values ...
  20 settings made for charge
1665 atoms in group wat
20 atoms in group Na
20 atoms in group Cl
Finding SHAKE clusters ...
       0 = # of size 2 clusters
       0 = # of size 3 clusters
       0 = # of size 4 clusters
     555 = # of frozen angles
  find clusters CPU = 0.000 seconds
PPPM initialization ...
  extracting TIP4P info from pair style
  using 12-bit tables for long-range coulomb (src/kspace.cpp:342)
  G vector (1/distance) = 0.31178787
  grid = 25 25 25
  stencil order = 5
  estimated absolute RMS force accuracy = 0.0033912303
  estimated relative force accuracy = 1.0212589e-05
  using single precision MKL FFT
  3d grid and FFT values/proc = 12800 4375
WARNING: Communication cutoff 0 is shorter than a bond length based estimate of 3.4358. This may lead to errors. (src/comm.cpp:723)
WARNING: Increasing communication cutoff to 13.1118 for TIP4P pair style (src/KSPACE/pair_lj_cut_tip4p_long.cpp:478)
Generated 0 of 6 mixed pair_coeff terms from arithmetic mixing rule
Neighbor list info ...
  update: every = 1 steps, delay = 0 steps, check = yes
  max neighbors/atom: 2000, page size: 100000
  master list distance cutoff = 12.3092
  ghost atom cutoff = 13.1118
  binsize = 6.1546, bins = 5 5 5
  1 neighbor lists, perpetual/occasional/extra = 1 0 0
  (1) pair lj/cut/tip4p/long, perpetual
      attributes: half, newton on
      pair build: half/bin/newton
      stencil: half/bin/3d
      bin: standard
Setting up Verlet run ...
  Unit style    : real
  Current step  : 0
  Time step     : 0.001
Per MPI rank memory allocation (min/avg/max) = 19.52 | 19.54 | 19.57 Mbytes
   Step        Density          Temp          Press          TotEng    
         0   1.0322568      442.16501      2612855.9      3171.3188    
      5000   0.99512081     592.24888      31015.095      2242.9465    
Loop time of 26.6247 on 48 procs for 5000 steps with 1705 atoms

Performance: 0.016 ns/day, 1479.148 hours/ns, 187.796 timesteps/s, 320.192 katom-step/s
797.9% CPU use with 4 MPI tasks x 12 OpenMP threads

MPI task timing breakdown:
Section |  min time  |  avg time  |  max time  |%varavg| %total
---------------------------------------------------------------
Pair    | 19.069     | 20.089     | 20.998     |  18.2 | 75.45
Bond    | 0.0016604  | 0.0017526  | 0.0018611  |   0.2 |  0.01
Kspace  | 2.8206     | 3.7322     | 4.7539     |  42.2 | 14.02
Neigh   | 0          | 0          | 0          |   0.0 |  0.00
Comm    | 0.45728    | 0.46464    | 0.46856    |   0.6 |  1.75
Output  | 0.013721   | 0.015484   | 0.017244   |   1.4 |  0.06
Modify  | 1.9174     | 2.0344     | 2.2624     |   9.4 |  7.64
Other   |            | 0.2874     |            |       |  1.08

Nlocal:         426.25 ave         433 max         421 min
Histogram: 1 0 0 1 1 0 0 0 0 1
Nghost:        7259.75 ave        7289 max        7229 min
Histogram: 1 0 0 1 0 0 0 1 0 1
Neighs:         157922 ave      163760 max      151749 min
Histogram: 1 1 0 0 0 0 0 0 0 2

Total # of neighbors = 631689
Ave neighs/atom = 370.49208
Ave special neighs/atom = 1.9530792
Neighbor list builds = 0
Dangerous builds = 0
PPPM initialization ...
  extracting TIP4P info from pair style
  using 12-bit tables for long-range coulomb (src/kspace.cpp:342)
  G vector (1/distance) = 0.31091163
  grid = 25 25 25
  stencil order = 5
  estimated absolute RMS force accuracy = 0.0035167166
  estimated relative force accuracy = 1.0590488e-05
  using single precision MKL FFT
  3d grid and FFT values/proc = 12800 4375
Generated 0 of 6 mixed pair_coeff terms from arithmetic mixing rule
Setting up Verlet run ...
  Unit style    : real
  Current step  : 5000
  Time step     : 0.01
Per MPI rank memory allocation (min/avg/max) = 21.02 | 21.03 | 21.06 Mbytes
   Step        Density          Temp          Press          TotEng    
      5000   0.99512081     592.24888      2348750.6      2242.9486    
     10000   0.96197778     356.94003     -6114.4349     -4900.8582    
Loop time of 24.769 on 48 procs for 5000 steps with 1705 atoms

Performance: 0.174 ns/day, 137.606 hours/ns, 201.865 timesteps/s, 344.180 katom-step/s
800.9% CPU use with 4 MPI tasks x 12 OpenMP threads

MPI task timing breakdown:
Section |  min time  |  avg time  |  max time  |%varavg| %total
---------------------------------------------------------------
Pair    | 17.724     | 18.47      | 19.173     |  14.6 | 74.57
Bond    | 0.0017101  | 0.0017538  | 0.0018132  |   0.1 |  0.01
Kspace  | 2.8332     | 3.5314     | 4.2687     |  33.1 | 14.26
Neigh   | 0.01776    | 0.01783    | 0.017879   |   0.0 |  0.07
Comm    | 0.42661    | 0.43531    | 0.44566    |   1.0 |  1.76
Output  | 0.013234   | 0.014286   | 0.015344   |   0.8 |  0.06
Modify  | 1.9069     | 2.0223     | 2.248      |   9.4 |  8.16
Other   |            | 0.2758     |            |       |  1.11

Nlocal:         426.25 ave         431 max         422 min
Histogram: 1 0 0 1 0 1 0 0 0 1
Nghost:         6965.5 ave        6985 max        6939 min
Histogram: 1 0 0 0 1 0 0 0 1 1
Neighs:         142816 ave      148522 max      136290 min
Histogram: 1 0 1 0 0 0 0 0 1 1

Total # of neighbors = 571265
Ave neighs/atom = 335.05279
Ave special neighs/atom = 1.9530792
Neighbor list builds = 6
Dangerous builds = 0
PPPM initialization ...
  extracting TIP4P info from pair style
  using 12-bit tables for long-range coulomb (src/kspace.cpp:342)
  G vector (1/distance) = 0.31009833
  grid = 25 25 25
  stencil order = 5
  estimated absolute RMS force accuracy = 0.0036369859
  estimated relative force accuracy = 1.0952675e-05
  using single precision MKL FFT
  3d grid and FFT values/proc = 12800 4375
Generated 0 of 6 mixed pair_coeff terms from arithmetic mixing rule
Setting up Verlet run ...
  Unit style    : real
  Current step  : 10000
  Time step     : 0.1
Per MPI rank memory allocation (min/avg/max) = 21.02 | 21.03 | 21.06 Mbytes
   Step        Density          Temp          Press          TotEng    
     10000   0.96197778     356.94003     -72783.212     -4900.8558    
     15000   1.1062567      315.95626      100.60134     -7459.8145    
Loop time of 29.1832 on 48 procs for 5000 steps with 1705 atoms

Performance: 1.480 ns/day, 16.213 hours/ns, 171.332 timesteps/s, 292.120 katom-step/s
800.3% CPU use with 4 MPI tasks x 12 OpenMP threads

MPI task timing breakdown:
Section |  min time  |  avg time  |  max time  |%varavg| %total
---------------------------------------------------------------
Pair    | 22.301     | 22.788     | 23.298     |   8.0 | 78.09
Bond    | 0.0017     | 0.0018413  | 0.0019291  |   0.2 |  0.01
Kspace  | 2.9249     | 3.4336     | 3.9208     |  20.7 | 11.77
Neigh   | 0.079446   | 0.079526   | 0.079623   |   0.0 |  0.27
Comm    | 0.50164    | 0.50434    | 0.5077     |   0.3 |  1.73
Output  | 0.013365   | 0.019605   | 0.03773    |   7.5 |  0.07
Modify  | 1.9471     | 2.0813     | 2.3183     |   9.8 |  7.13
Other   |            | 0.2748     |            |       |  0.94

Nlocal:         426.25 ave         433 max         418 min
Histogram: 1 0 0 0 0 1 1 0 0 1
Nghost:           7581 ave        7644 max        7509 min
Histogram: 1 0 0 0 1 0 0 1 0 1
Neighs:         169466 ave      173035 max      164702 min
Histogram: 1 0 0 0 0 0 2 0 0 1

Total # of neighbors = 677864
Ave neighs/atom = 397.57419
Ave special neighs/atom = 1.9530792
Neighbor list builds = 24
Dangerous builds = 0
PPPM initialization ...
  extracting TIP4P info from pair style
  using 12-bit tables for long-range coulomb (src/kspace.cpp:342)
  G vector (1/distance) = 0.31051549
  grid = 24 24 24
  stencil order = 5
  estimated absolute RMS force accuracy = 0.0038007202
  estimated relative force accuracy = 1.1445756e-05
  using single precision MKL FFT
  3d grid and FFT values/proc = 11191 3456
Generated 0 of 6 mixed pair_coeff terms from arithmetic mixing rule
Setting up Verlet run ...
  Unit style    : real
  Current step  : 15000
  Time step     : 0.2
Per MPI rank memory allocation (min/avg/max) = 20.99 | 20.99 | 20.99 Mbytes
   Step        Density          Temp          Press          TotEng    
     15000   1.1062567      315.95626      6812.6985     -7459.8094    
     20000   1.0905781      316.81746      1490.5785     -7583.145     
Loop time of 29.1982 on 48 procs for 5000 steps with 1705 atoms

Performance: 2.959 ns/day, 8.111 hours/ns, 171.243 timesteps/s, 291.970 katom-step/s
680.5% CPU use with 4 MPI tasks x 12 OpenMP threads

MPI task timing breakdown:
Section |  min time  |  avg time  |  max time  |%varavg| %total
---------------------------------------------------------------
Pair    | 21.951     | 22.667     | 23.398     |  14.5 | 77.63
Bond    | 0.0017288  | 0.0018013  | 0.0019904  |   0.3 |  0.01
Kspace  | 2.9782     | 3.71       | 4.4239     |  35.8 | 12.71
Neigh   | 0.14883    | 0.14888    | 0.14892    |   0.0 |  0.51
Comm    | 0.52507    | 0.52819    | 0.53263    |   0.4 |  1.81
Output  | 0.014653   | 0.01537    | 0.016907   |   0.7 |  0.05
Modify  | 2.0372     | 2.0693     | 2.0824     |   1.3 |  7.09
Other   |            | 0.05801    |            |       |  0.20

Nlocal:         426.25 ave         432 max         419 min
Histogram: 1 0 0 0 0 1 1 0 0 1
Nghost:         7424.5 ave        7463 max        7386 min
Histogram: 1 0 0 1 0 0 1 0 0 1
Neighs:         164694 ave      168398 max      161410 min
Histogram: 1 0 0 0 2 0 0 0 0 1

Total # of neighbors = 658777
Ave neighs/atom = 386.37947
Ave special neighs/atom = 1.9530792
Neighbor list builds = 44
Dangerous builds = 0
PPPM initialization ...
  extracting TIP4P info from pair style
  using 12-bit tables for long-range coulomb (src/kspace.cpp:342)
  G vector (1/distance) = 0.31017219
  grid = 24 24 24
  stencil order = 5
  estimated absolute RMS force accuracy = 0.0038549984
  estimated relative force accuracy = 1.1609213e-05
  using single precision MKL FFT
  3d grid and FFT values/proc = 11191 3456
Generated 0 of 6 mixed pair_coeff terms from arithmetic mixing rule
Setting up Verlet run ...
  Unit style    : real
  Current step  : 20000
  Time step     : 0.5
Per MPI rank memory allocation (min/avg/max) = 20.99 | 20.99 | 20.99 Mbytes
   Step        Density          Temp          Press          TotEng    
     20000   1.0905781      316.81746      159.70288     -7583.145     
     25000   1.0612733      292.91131     -423.37361     -7747.8282    
Loop time of 29.511 on 48 procs for 5000 steps with 1705 atoms

Performance: 7.319 ns/day, 3.279 hours/ns, 169.428 timesteps/s, 288.875 katom-step/s
680.7% CPU use with 4 MPI tasks x 12 OpenMP threads

MPI task timing breakdown:
Section |  min time  |  avg time  |  max time  |%varavg| %total
---------------------------------------------------------------
Pair    | 22.161     | 22.778     | 23.151     |   7.8 | 77.18
Bond    | 0.0016254  | 0.0017378  | 0.0017956  |   0.2 |  0.01
Kspace  | 3.2729     | 3.6469     | 4.2649     |  19.6 | 12.36
Neigh   | 0.39261    | 0.39277    | 0.39285    |   0.0 |  1.33
Comm    | 0.53475    | 0.53765    | 0.54232    |   0.4 |  1.82
Output  | 0.014598   | 0.016263   | 0.017924   |   1.2 |  0.06
Modify  | 2.0473     | 2.0803     | 2.0941     |   1.3 |  7.05
Other   |            | 0.05774    |            |       |  0.20

Nlocal:         426.25 ave         434 max         418 min
Histogram: 1 0 0 0 1 0 1 0 0 1
Nghost:         7409.5 ave        7423 max        7378 min
Histogram: 1 0 0 0 0 0 0 0 1 2
Neighs:         162847 ave      166051 max      159546 min
Histogram: 1 0 0 0 1 0 1 0 0 1

Total # of neighbors = 651387
Ave neighs/atom = 382.04516
Ave special neighs/atom = 1.9530792
Neighbor list builds = 113
Dangerous builds = 0
ERROR: Cannot reset timestep with active dump - must undump first (src/output.cpp:641)
Last command: reset_timestep 0
srun: error: cmp033: tasks 0-3: Exited with exit code 1
srun: launch/slurm: _step_signal: Terminating StepId=3287318.0
