LAMMPS (16 Mar 2018)
Reading data file ...
  orthogonal box = (0 0 0) to (26.1901 26.1901 26.1901)
  4 by 4 by 8 MPI processor grid
  reading atoms ...
  1705 atoms
  scanning bonds ...
  2 = max bonds/atom
  scanning angles ...
  1 = max angles/atom
  reading bonds ...
  1110 bonds
  reading angles ...
  555 angles
Finding 1-2 1-3 1-4 neighbors ...
  special bond factors lj:   0          0          0         
  special bond factors coul: 0          0          0         
  2 = max # of 1-2 neighbors
  1 = max # of 1-3 neighbors
  1 = max # of 1-4 neighbors
  2 = max # of special neighbors
Setting atom values ...
  555 settings made for charge
Setting atom values ...
  1110 settings made for charge
Setting atom values ...
  20 settings made for charge
Setting atom values ...
  20 settings made for charge
555 atoms in group wat
20 atoms in group Na
20 atoms in group Cl
Finding SHAKE clusters ...
  0 = # of size 2 clusters
  0 = # of size 3 clusters
  0 = # of size 4 clusters
  555 = # of frozen angles
PPPM initialization ...
  extracting TIP4P info from pair style
  using 12-bit tables for long-range coulomb (../kspace.cpp:321)
  G vector (1/distance) = 0.311788
  grid = 25 25 25
  stencil order = 5
  estimated absolute RMS force accuracy = 0.00339123
  estimated relative force accuracy = 1.02126e-05
  using double precision FFTs
  3d grid and FFT values/proc = 2156 200
Neighbor list info ...
  update every 1 steps, delay 0 steps, check yes
  max neighbors/atom: 2000, page size: 100000
  master list distance cutoff = 12.3092
  ghost atom cutoff = 12.3092
  binsize = 6.1546, bins = 5 5 5
  1 neighbor lists, perpetual/occasional/extra = 1 0 0
  (1) pair lj/cut/tip4p/long, perpetual
      attributes: half, newton on
      pair build: half/bin/newton
      stencil: half/bin/3d/newton
      bin: standard
Setting up Verlet run ...
  Unit style    : real
  Current step  : 0
  Time step     : 0.001
Per MPI rank memory allocation (min/avg/max) = 7.886 | 7.966 | 8.162 Mbytes
Step Density Temp Press TotEng 
       0    1.0322568    442.16501    2612855.9    3171.3188 
    5000   0.99510254    592.24511    31012.104    2242.7923 
Loop time of 3.51583 on 128 procs for 5000 steps with 1705 atoms

Performance: 0.123 ns/day, 195.324 hours/ns, 1422.139 timesteps/s
98.9% CPU use with 128 MPI tasks x no OpenMP threads

MPI task timing breakdown:
Section |  min time  |  avg time  |  max time  |%varavg| %total
---------------------------------------------------------------
Pair    | 0.31903    | 0.63319    | 1.0319     |  20.4 | 18.01
Bond    | 0.00045125 | 0.00056101 | 0.00086995 |   0.0 |  0.02
Kspace  | 1.3687     | 1.759      | 2.0698     |  12.4 | 50.03
Neigh   | 0          | 0          | 0          |   0.0 |  0.00
Comm    | 0.40332    | 0.46637    | 0.52651    |   4.1 | 13.26
Output  | 6.1896e-05 | 6.9013e-05 | 0.00012047 |   0.0 |  0.00
Modify  | 0.47723    | 0.53804    | 0.59711    |   4.2 | 15.30
Other   |            | 0.1186     |            |       |  3.37

Nlocal:    13.3203 ave 18 max 8 min
Histogram: 1 4 7 11 20 28 23 14 9 11
Nghost:    2639.39 ave 2751 max 2559 min
Histogram: 9 14 17 27 16 19 11 6 4 5
Neighs:    4935.07 ave 7923 max 2575 min
Histogram: 4 11 29 22 16 12 13 11 7 3

Total # of neighbors = 631689
Ave neighs/atom = 370.492
Ave special neighs/atom = 1.95308
Neighbor list builds = 0
Dangerous builds = 0
PPPM initialization ...
  extracting TIP4P info from pair style
  using 12-bit tables for long-range coulomb (../kspace.cpp:321)
  G vector (1/distance) = 0.310911
  grid = 25 25 25
  stencil order = 5
  estimated absolute RMS force accuracy = 0.00351678
  estimated relative force accuracy = 1.05907e-05
  using double precision FFTs
  3d grid and FFT values/proc = 2156 200
Setting up Verlet run ...
  Unit style    : real
  Current step  : 5000
  Time step     : 0.01
Per MPI rank memory allocation (min/avg/max) = 7.886 | 7.974 | 8.162 Mbytes
Step Density Temp Press TotEng 
    5000   0.99510254    592.24511      2349709    2242.7944 
   10000    0.9619838    356.94287   -6113.4661   -4900.8095 
Loop time of 3.1821 on 128 procs for 5000 steps with 1705 atoms

Performance: 1.358 ns/day, 17.678 hours/ns, 1571.290 timesteps/s
99.3% CPU use with 128 MPI tasks x no OpenMP threads

MPI task timing breakdown:
Section |  min time  |  avg time  |  max time  |%varavg| %total
---------------------------------------------------------------
Pair    | 0.32148    | 0.57469    | 0.93783    |  19.2 | 18.06
Bond    | 0.00044397 | 0.000544   | 0.00086818 |   0.0 |  0.02
Kspace  | 1.2205     | 1.5779     | 1.8278     |  11.8 | 49.59
Neigh   | 0.0010353  | 0.0010934  | 0.001136   |   0.1 |  0.03
Comm    | 0.37902    | 0.45758    | 0.5037     |   3.4 | 14.38
Output  | 5.1306e-05 | 5.6754e-05 | 0.00011528 |   0.0 |  0.00
Modify  | 0.42146    | 0.47379    | 0.52686    |   4.1 | 14.89
Other   |            | 0.09646    |            |       |  3.03

Nlocal:    13.3203 ave 19 max 8 min
Histogram: 4 10 17 15 17 29 17 9 6 4
Nghost:    2432.94 ave 2552 max 2347 min
Histogram: 14 10 14 31 16 9 20 7 3 4
Neighs:    4462.99 ave 7434 max 2277 min
Histogram: 2 17 24 28 13 15 14 7 5 3

Total # of neighbors = 571263
Ave neighs/atom = 335.052
Ave special neighs/atom = 1.95308
Neighbor list builds = 6
Dangerous builds = 0
PPPM initialization ...
  extracting TIP4P info from pair style
  using 12-bit tables for long-range coulomb (../kspace.cpp:321)
  G vector (1/distance) = 0.310098
  grid = 25 25 25
  stencil order = 5
  estimated absolute RMS force accuracy = 0.00363696
  estimated relative force accuracy = 1.09526e-05
  using double precision FFTs
  3d grid and FFT values/proc = 2156 200
Setting up Verlet run ...
  Unit style    : real
  Current step  : 10000
  Time step     : 0.1
Per MPI rank memory allocation (min/avg/max) = 7.886 | 8.042 | 8.162 Mbytes
Step Density Temp Press TotEng 
   10000    0.9619838    356.94287   -72803.315   -4900.8072 
   15000    1.1068215    316.28489    178.16327   -7468.7968 
Loop time of 3.54947 on 128 procs for 5000 steps with 1705 atoms

Performance: 12.171 ns/day, 1.972 hours/ns, 1408.662 timesteps/s
99.3% CPU use with 128 MPI tasks x no OpenMP threads

MPI task timing breakdown:
Section |  min time  |  avg time  |  max time  |%varavg| %total
---------------------------------------------------------------
Pair    | 0.41564    | 0.72006    | 1.0587     |  18.8 | 20.29
Bond    | 0.00045147 | 0.0005482  | 0.00084383 |   0.0 |  0.02
Kspace  | 1.387      | 1.7302     | 2.0309     |  12.3 | 48.75
Neigh   | 0.0049783  | 0.0052378  | 0.0054753  |   0.2 |  0.15
Comm    | 0.41311    | 0.47585    | 0.54339    |   4.4 | 13.41
Output  | 5.384e-05  | 5.9054e-05 | 9.9416e-05 |   0.0 |  0.00
Modify  | 0.45957    | 0.51999    | 0.56882    |   4.0 | 14.65
Other   |            | 0.0975     |            |       |  2.75

Nlocal:    13.3203 ave 19 max 9 min
Histogram: 3 14 14 16 22 20 16 11 7 5
Nghost:    2730.62 ave 2812 max 2648 min
Histogram: 4 8 11 19 20 24 12 18 7 5
Neighs:    5295.83 ave 8419 max 2987 min
Histogram: 11 10 23 24 16 13 10 7 9 5

Total # of neighbors = 677866
Ave neighs/atom = 397.575
Ave special neighs/atom = 1.95308
Neighbor list builds = 24
Dangerous builds = 0
PPPM initialization ...
  extracting TIP4P info from pair style
  using 12-bit tables for long-range coulomb (../kspace.cpp:321)
  G vector (1/distance) = 0.310528
  grid = 24 24 24
  stencil order = 5
  estimated absolute RMS force accuracy = 0.00379879
  estimated relative force accuracy = 1.144e-05
  using double precision FFTs
  3d grid and FFT values/proc = 1690 144
Setting up Verlet run ...
  Unit style    : real
  Current step  : 15000
  Time step     : 0.2
Per MPI rank memory allocation (min/avg/max) = 7.878 | 8.109 | 8.148 Mbytes
Step Density Temp Press TotEng 
   15000    1.1068215    316.28489    6825.1852    -7468.793 
   20000    1.0700153    302.43168   -587.82514   -7642.8447 
Loop time of 3.73023 on 128 procs for 5000 steps with 1705 atoms

Performance: 23.162 ns/day, 1.036 hours/ns, 1340.398 timesteps/s
99.2% CPU use with 128 MPI tasks x no OpenMP threads

MPI task timing breakdown:
Section |  min time  |  avg time  |  max time  |%varavg| %total
---------------------------------------------------------------
Pair    | 0.34789    | 0.71717    | 1.0588     |  18.8 | 19.23
Bond    | 0.00044966 | 0.00054911 | 0.00078524 |   0.0 |  0.01
Kspace  | 1.5294     | 1.8548     | 2.222      |  11.9 | 49.72
Neigh   | 0.0094095  | 0.0097818  | 0.010323   |   0.3 |  0.26
Comm    | 0.42921    | 0.49447    | 0.56148    |   4.5 | 13.26
Output  | 6.3799e-05 | 7.2829e-05 | 0.00014464 |   0.0 |  0.00
Modify  | 0.48082    | 0.53553    | 0.58545    |   3.8 | 14.36
Other   |            | 0.1179     |            |       |  3.16

Nlocal:    13.3203 ave 19 max 7 min
Histogram: 3 3 6 20 13 45 15 8 12 3
Nghost:    2668.7 ave 2741 max 2604 min
Histogram: 4 9 15 15 29 24 15 13 3 1
Neighs:    5124.28 ave 8618 max 2237 min
Histogram: 4 8 18 25 23 23 9 12 5 1

Total # of neighbors = 655908
Ave neighs/atom = 384.697
Ave special neighs/atom = 1.95308
Neighbor list builds = 45
Dangerous builds = 0
PPPM initialization ...
  extracting TIP4P info from pair style
  using 12-bit tables for long-range coulomb (../kspace.cpp:321)
  G vector (1/distance) = 0.312643
  grid = 25 25 25
  stencil order = 5
  estimated absolute RMS force accuracy = 0.00327268
  estimated relative force accuracy = 9.85557e-06
  using double precision FFTs
  3d grid and FFT values/proc = 2156 200
Setting up Verlet run ...
  Unit style    : real
  Current step  : 20000
  Time step     : 0.5
Per MPI rank memory allocation (min/avg/max) = 7.891 | 8.137 | 8.163 Mbytes
Step Density Temp Press TotEng 
   20000    1.0700153    302.43168    933.58728   -7642.8387 
   25000     1.074682    289.08609   -134.48304   -7790.7846 
Loop time of 3.87644 on 128 procs for 5000 steps with 1705 atoms

Performance: 55.721 ns/day, 0.431 hours/ns, 1289.844 timesteps/s
99.2% CPU use with 128 MPI tasks x no OpenMP threads

MPI task timing breakdown:
Section |  min time  |  avg time  |  max time  |%varavg| %total
---------------------------------------------------------------
Pair    | 0.43532    | 0.73552    | 1.0342     |  17.8 | 18.97
Bond    | 0.00045525 | 0.00054698 | 0.00084061 |   0.0 |  0.01
Kspace  | 1.6592     | 1.9755     | 2.2779     |  10.9 | 50.96
Neigh   | 0.024297   | 0.027352   | 0.041904   |   3.0 |  0.71
Comm    | 0.41753    | 0.47862    | 0.5494     |   4.5 | 12.35
Output  | 5.1185e-05 | 5.9059e-05 | 0.00010122 |   0.0 |  0.00
Modify  | 0.49789    | 0.55914    | 0.60906    |   3.9 | 14.42
Other   |            | 0.09973    |            |       |  2.57

Nlocal:    13.3203 ave 21 max 7 min
Histogram: 3 5 26 10 19 41 12 11 0 1
Nghost:    2640.16 ave 2679 max 2595 min
Histogram: 2 4 10 11 26 16 35 17 5 2
Neighs:    5136.25 ave 9027 max 2416 min
Histogram: 4 15 14 33 21 22 10 6 2 1

Total # of neighbors = 657440
Ave neighs/atom = 385.595
Ave special neighs/atom = 1.95308
Neighbor list builds = 112
Dangerous builds = 0
PPPM initialization ...
  extracting TIP4P info from pair style
  using 12-bit tables for long-range coulomb (../kspace.cpp:321)
  G vector (1/distance) = 0.312747
  grid = 25 25 25
  stencil order = 5
  estimated absolute RMS force accuracy = 0.00325861
  estimated relative force accuracy = 9.81321e-06
  using double precision FFTs
  3d grid and FFT values/proc = 2156 200
Setting up Verlet run ...
  Unit style    : real
  Current step  : 0
  Time step     : 2
Per MPI rank memory allocation (min/avg/max) = 7.905 | 8.149 | 8.163 Mbytes
Step Density Temp Press TotEng 
       0     1.074682    289.08609    501.61935   -7790.7848 
  100000    1.0884146    291.77869    502.96779   -7752.7158 
  200000     1.082793    293.68707   -414.02062   -7809.1594 
  300000     1.070465    295.74709    407.60635   -7762.9445 
  400000    1.0522989     278.0551   -586.43339    -7786.383 
  500000    1.0910578    300.46889    295.70626   -7668.0837 
  600000    1.0508263    294.41232    -329.3887   -7753.5429 
  700000    1.0680811    305.62667   -553.82217   -7665.4183 
  800000     1.058204    301.55723    -265.6002    -7771.353 
  900000    1.0760738    303.08206   -1266.7066    -7656.131 
 1000000    1.0634192    291.05652   -245.11096   -7764.0498 
 1100000    1.0651355    287.60928   -609.12358   -7743.3901 
 1200000    1.0701132    296.76067    -393.4628   -7743.8913 
 1300000    1.0681433    295.45059   -462.64115   -7795.1732 
 1400000    1.0737881    297.63063     677.5746   -7694.8071 
 1500000    1.0675637    293.59858     428.5717   -7735.2921 
 1600000    1.0706662    303.20809     1158.027   -7723.6674 
 1700000    1.0851349    296.01576    325.18332    -7800.802 
 1800000    1.0742819     305.7503    759.83045   -7797.5688 
 1900000    1.0768672    304.36628    281.84031    -7725.494 
 2000000    1.0648637    312.36621   -432.71158    -7688.577 
 2100000    1.0805892    296.19447    1041.7807   -7760.8639 
 2200000    1.0540523    290.04352   -291.03961   -7696.7714 
 2300000    1.0496224     298.8665    1003.7167   -7750.4266 
 2400000    1.0821889    303.10773   -558.57037   -7761.1995 
 2500000    1.0618786    298.48939   -1093.4126   -7775.2336 
 2600000    1.0540226    302.88182   -642.15692   -7727.8174 
 2700000    1.0706216    296.84931    504.81874   -7721.0167 
 2800000    1.0678179    289.23393    631.31755   -7737.6536 
 2900000    1.0818254    307.91314    50.671268   -7751.7178 
 3000000    1.0761856    293.38088    1114.0019    -7768.692 
 3100000    1.0678444    311.85253   -646.26614   -7705.3195 
 3200000    1.0697588    301.50643   -93.874353   -7722.9744 
 3300000    1.0719711    299.72445    701.70856    -7783.126 
 3400000    1.0845148    306.97969    701.77412   -7711.2822 
 3500000    1.0731329    299.73375   -9.7079295   -7683.7661 
 3600000    1.0927419     291.4697    533.26097   -7796.5517 
 3700000    1.0544322    285.79689   -139.19825   -7646.2362 
 3800000    1.0584979    292.79847    635.14015    -7701.894 
 3900000    1.0592228    290.29416   -355.78469   -7721.5607 
 4000000    1.0590993    293.31062    681.39215   -7632.4755 
 4100000    1.0677862    306.61925    924.40732   -7649.6054 
 4200000    1.0686045    301.04766    117.85184    -7736.203 
 4300000     1.084544     312.5712    935.66502   -7664.3726 
 4400000    1.0796475    299.01951    877.21905   -7733.8664 
 4500000    1.0774873    296.46631    525.42201   -7761.5745 
 4600000    1.0532347    283.14673   -1149.9213   -7746.2514 
 4700000    1.0715964    285.59973    379.87687   -7756.2205 
 4800000    1.0628659    304.14738    -460.7821   -7760.1108 
 4900000    1.0747529    288.09832   -369.34693   -7740.1324 
 5000000    1.0798159      311.763   -13.132814   -7652.1337 
Loop time of 5307.28 on 128 procs for 5000000 steps with 1705 atoms

Performance: 162.795 ns/day, 0.147 hours/ns, 942.102 timesteps/s
99.2% CPU use with 128 MPI tasks x no OpenMP threads

MPI task timing breakdown:
Section |  min time  |  avg time  |  max time  |%varavg| %total
---------------------------------------------------------------
Pair    | 617.15     | 761.77     | 916.78     | 482.6 | 14.35
Bond    | 0.4698     | 0.62571    | 1.2329     |  21.6 |  0.01
Kspace  | 2129.8     | 2491.3     | 2687       | 314.8 | 46.94
Neigh   | 96.998     | 141.03     | 151.86     | 130.2 |  2.66
Comm    | 647.25     | 813.42     | 1144.7     | 384.3 | 15.33
Output  | 0.0041848  | 0.00473    | 0.0086477  |   0.7 |  0.00
Modify  | 893.26     | 988.53     | 1092       | 158.7 | 18.63
Other   |            | 110.6      |            |       |  2.08

Nlocal:    13.3203 ave 18 max 8 min
Histogram: 3 3 7 18 19 20 14 20 11 13
Nghost:    2644.17 ave 2696 max 2601 min
Histogram: 5 10 16 20 20 24 17 6 8 2
Neighs:    5160.63 ave 8570 max 2682 min
Histogram: 5 12 24 20 27 14 11 9 3 3

Total # of neighbors = 660561
Ave neighs/atom = 387.426
Ave special neighs/atom = 1.95308
Neighbor list builds = 408905
Dangerous builds = 0
PPPM initialization ...
  extracting TIP4P info from pair style
  using 12-bit tables for long-range coulomb (../kspace.cpp:321)
  G vector (1/distance) = 0.31286
  grid = 25 25 25
  stencil order = 5
  estimated absolute RMS force accuracy = 0.00324328
  estimated relative force accuracy = 9.76703e-06
  using double precision FFTs
  3d grid and FFT values/proc = 2156 200
Setting up Verlet run ...
  Unit style    : real
  Current step  : 0
  Time step     : 2
Per MPI rank memory allocation (min/avg/max) = 8.137 | 8.151 | 8.163 Mbytes
Step Density Temp Press TotEng 
       0    1.0798159      311.763   -15.941974   -7652.1335 
  100000    1.0761144    293.78671    358.54417    -7819.328 
  200000    1.0791795    304.34599    161.52808   -7712.3638 
  300000    1.0782703    288.10029     28.20791   -7747.3275 
  400000    1.0724073      294.949    -706.9626   -7732.1035 
  500000    1.0713845    304.78414   -535.36071   -7741.9023 
  600000    1.0685722    300.93082    327.48272     -7739.91 
  700000    1.0827218    309.61882    873.53773   -7737.9517 
  800000    1.0512393    288.36267   -176.57414   -7684.5265 
  900000    1.0697743    295.47377    281.00186   -7771.4074 
 1000000    1.0497088    297.74471   -342.99855   -7771.8357 
 1100000    1.0717827    290.14249    609.95839   -7742.9153 
 1200000    1.0696036    300.76441   -152.88392   -7683.2555 
 1300000    1.0642703    294.98225    491.25341   -7726.1801 
 1400000    1.0655279    300.21445   -397.04796   -7659.7706 
 1500000    1.0809674    296.62131    931.57974   -7750.4828 
 1600000    1.0769979    287.37242    185.49437   -7776.4997 
 1700000    1.0670801    301.20496   -768.88993   -7724.7842 
 1800000     1.055539    299.01508   -195.65685   -7759.2838 
 1900000    1.0726071     310.1424   -247.94684   -7717.1793 
 2000000    1.0649759    289.70053   -936.68526   -7742.0128 
 2100000    1.0745629    296.41927   -280.00195   -7832.7881 
 2200000    1.0709587    288.91665   -674.57611   -7725.4369 
 2300000    1.0576334    300.55425     156.1416   -7756.9338 
 2400000    1.0867097    301.92208    1229.1957   -7726.1656 
 2500000    1.0678215    302.79064   -86.328049   -7676.4719 
 2600000    1.0799507    294.43152   -378.68432   -7762.0454 
 2700000    1.0696144    302.80997   -313.79006   -7759.7126 
 2800000    1.0614565    304.08494     612.8666    -7755.357 
 2900000    1.0527795    296.40746    205.53689   -7680.4228 
 3000000    1.0632776    303.58163   -735.74517   -7666.8492 
 3100000    1.0751355    293.55184   -487.39496   -7752.9804 
 3200000    1.1005291    299.88926    887.39944   -7745.1457 
 3300000      1.06272    300.28527    390.58102   -7746.5246 
 3400000    1.0707416    299.16588    759.47385   -7737.3285 
 3500000    1.0806071    303.03658   -566.27412   -7706.0806 
 3600000     1.088497    288.24103   -59.152274   -7807.9806 
 3700000    1.0851744    299.01549    198.46477   -7746.4378 
 3800000    1.0608966     303.1478   -126.40277   -7665.2292 
 3900000    1.0687322    291.53447    488.79714   -7751.4998 
 4000000    1.0668259    291.78681   -768.29658   -7734.4105 
 4100000     1.072377    299.60955    394.83115   -7691.1921 
 4200000    1.0673964    291.57986    84.697555   -7734.0631 
 4300000    1.0636526    304.55037   -258.15588   -7772.8686 
 4400000    1.0742112    294.87115   -313.27585   -7687.2169 
 4500000    1.0672151    300.27952    -473.0292   -7673.6056 
 4600000    1.0716519    300.17084   -333.16531   -7714.5786 
 4700000    1.0549115    289.39179   -1007.6923   -7757.8734 
 4800000    1.0693673    302.04737    -340.4756   -7711.5531 
 4900000    1.0641973    299.02027   -709.75846    -7685.806 
 5000000    1.0553405    294.65091    -250.5175   -7769.7702 
Loop time of 4574.57 on 128 procs for 5000000 steps with 1705 atoms

Performance: 188.870 ns/day, 0.127 hours/ns, 1093.000 timesteps/s
99.0% CPU use with 128 MPI tasks x no OpenMP threads

MPI task timing breakdown:
Section |  min time  |  avg time  |  max time  |%varavg| %total
---------------------------------------------------------------
Pair    | 611.59     | 759.65     | 913.87     | 481.4 | 16.61
Bond    | 0.47383    | 0.62179    | 0.88765    |  12.8 |  0.01
Kspace  | 1890.9     | 2130.3     | 2303       | 299.1 | 46.57
Neigh   | 94.154     | 111.77     | 118.45     |  53.7 |  2.44
Comm    | 524.62     | 623.91     | 768.91     | 204.0 | 13.64
Output  | 1.8934     | 1.8943     | 1.8949     |   0.0 |  0.04
Modify  | 762.11     | 837.12     | 898.16     | 121.9 | 18.30
Other   |            | 109.3      |            |       |  2.39

Nlocal:    13.3203 ave 20 max 6 min
Histogram: 3 2 12 12 19 33 19 23 2 3
Nghost:    2595.96 ave 2653 max 2548 min
Histogram: 6 8 14 22 25 23 15 9 5 1
Neighs:    5044.93 ave 8383 max 1764 min
Histogram: 3 5 13 24 23 21 12 18 6 3

Total # of neighbors = 645751
Ave neighs/atom = 378.74
Ave special neighs/atom = 1.95308
Neighbor list builds = 409089
Dangerous builds = 0
Changing box ...
  orthogonal box = (0.096182 0.096182 0.096182) to (25.9743 26.094 26.094)
  orthogonal box = (0.096182 0.096182 0.096182) to (25.9743 25.9743 26.094)
  orthogonal box = (0.096182 0.096182 0.096182) to (25.9743 25.9743 25.9743)
PPPM initialization ...
  extracting TIP4P info from pair style
  using 12-bit tables for long-range coulomb (../kspace.cpp:321)
  G vector (1/distance) = 0.312644
  grid = 25 25 25
  stencil order = 5
  estimated absolute RMS force accuracy = 0.00327259
  estimated relative force accuracy = 9.85531e-06
  using double precision FFTs
  3d grid and FFT values/proc = 2156 200
Setting up Verlet run ...
  Unit style    : real
  Current step  : 5000000
  Time step     : 0.001
Per MPI rank memory allocation (min/avg/max) = 8.137 | 8.151 | 8.163 Mbytes
Step Density Temp Press TotEng 
 5000000    1.0700438    294.65091   -159161.89   -7628.1903 
 5005000    1.0700438    300.61504    2528.8142    -7731.417 
Loop time of 2.89746 on 128 procs for 5000 steps with 1705 atoms

Performance: 0.149 ns/day, 160.970 hours/ns, 1725.647 timesteps/s
99.4% CPU use with 128 MPI tasks x no OpenMP threads

MPI task timing breakdown:
Section |  min time  |  avg time  |  max time  |%varavg| %total
---------------------------------------------------------------
Pair    | 0.17342    | 0.51505    | 0.95       |  22.5 | 17.78
Bond    | 0.00033488 | 0.00040647 | 0.00064141 |   0.0 |  0.01
Kspace  | 1.1533     | 1.5726     | 1.9213     |  12.9 | 54.28
Neigh   | 0          | 0          | 0          |   0.0 |  0.00
Comm    | 0.39947    | 0.44545    | 0.49433    |   3.2 | 15.37
Output  | 4.6417e-05 | 5.141e-05  | 7.3236e-05 |   0.0 |  0.00
Modify  | 0.27845    | 0.31053    | 0.334      |   2.3 | 10.72
Other   |            | 0.05334    |            |       |  1.84

Nlocal:    13.3203 ave 22 max 6 min
Histogram: 3 7 9 25 23 32 25 2 1 1
Nghost:    2624.27 ave 2674 max 2582 min
Histogram: 8 8 15 17 26 20 17 9 7 1
Neighs:    5115.61 ave 8630 max 1809 min
Histogram: 4 5 13 28 19 19 17 13 8 2

Total # of neighbors = 654798
Ave neighs/atom = 384.046
Ave special neighs/atom = 1.95308
Neighbor list builds = 0
Dangerous builds = 0
PPPM initialization ...
  extracting TIP4P info from pair style
  using 12-bit tables for long-range coulomb (../kspace.cpp:321)
  G vector (1/distance) = 0.312644
  grid = 25 25 25
  stencil order = 5
  estimated absolute RMS force accuracy = 0.00327259
  estimated relative force accuracy = 9.85531e-06
  using double precision FFTs
  3d grid and FFT values/proc = 2156 200
Setting up Verlet run ...
  Unit style    : real
  Current step  : 5005000
  Time step     : 0.01
Per MPI rank memory allocation (min/avg/max) = 8.137 | 8.151 | 8.163 Mbytes
Step Density Temp Press TotEng 
 5005000    1.0700438    300.61504    2528.7902    -7731.417 
 5010000    1.0700438    318.32651    1162.2736    -7776.716 
Loop time of 2.88095 on 128 procs for 5000 steps with 1705 atoms

Performance: 1.500 ns/day, 16.005 hours/ns, 1735.538 timesteps/s
99.4% CPU use with 128 MPI tasks x no OpenMP threads

MPI task timing breakdown:
Section |  min time  |  avg time  |  max time  |%varavg| %total
---------------------------------------------------------------
Pair    | 0.16055    | 0.51593    | 0.92973    |  22.1 | 17.91
Bond    | 0.00033229 | 0.00040508 | 0.00062835 |   0.0 |  0.01
Kspace  | 1.184      | 1.5762     | 1.9404     |  12.7 | 54.71
Neigh   | 0.00044229 | 0.00045661 | 0.00047106 |   0.0 |  0.02
Comm    | 0.39632    | 0.44422    | 0.49158    |   3.2 | 15.42
Output  | 4.5305e-05 | 5.0351e-05 | 6.8227e-05 |   0.0 |  0.00
Modify  | 0.2609     | 0.2924     | 0.31641    |   2.3 | 10.15
Other   |            | 0.05133    |            |       |  1.78

Nlocal:    13.3203 ave 21 max 7 min
Histogram: 2 8 19 20 22 28 16 11 1 1
Nghost:    2633.24 ave 2693 max 2596 min
Histogram: 15 15 18 21 23 14 9 8 2 3
Neighs:    5113.44 ave 8337 max 2207 min
Histogram: 4 9 18 23 16 22 11 12 8 5

Total # of neighbors = 654520
Ave neighs/atom = 383.883
Ave special neighs/atom = 1.95308
Neighbor list builds = 2
Dangerous builds = 0
PPPM initialization ...
  extracting TIP4P info from pair style
  using 12-bit tables for long-range coulomb (../kspace.cpp:321)
  G vector (1/distance) = 0.312644
  grid = 25 25 25
  stencil order = 5
  estimated absolute RMS force accuracy = 0.00327259
  estimated relative force accuracy = 9.85531e-06
  using double precision FFTs
  3d grid and FFT values/proc = 2156 200
Setting up Verlet run ...
  Unit style    : real
  Current step  : 5010000
  Time step     : 0.1
Per MPI rank memory allocation (min/avg/max) = 8.137 | 8.151 | 8.163 Mbytes
Step Density Temp Press TotEng 
 5010000    1.0700438    318.32651    1161.9859    -7776.716 
 5015000    1.0700438    277.68899   -184.84912   -7848.5189 
Loop time of 2.80087 on 128 procs for 5000 steps with 1705 atoms

Performance: 15.424 ns/day, 1.556 hours/ns, 1785.162 timesteps/s
99.4% CPU use with 128 MPI tasks x no OpenMP threads

MPI task timing breakdown:
Section |  min time  |  avg time  |  max time  |%varavg| %total
---------------------------------------------------------------
Pair    | 0.2253     | 0.52136    | 0.79835    |  18.8 | 18.61
Bond    | 0.00033648 | 0.00040678 | 0.00072597 |   0.0 |  0.01
Kspace  | 1.1895     | 1.4935     | 1.7787     |  11.3 | 53.32
Neigh   | 0.0039075  | 0.0040448  | 0.004156   |   0.1 |  0.14
Comm    | 0.39695    | 0.44333    | 0.48989    |   3.2 | 15.83
Output  | 5.6286e-05 | 6.0785e-05 | 9.1841e-05 |   0.0 |  0.00
Modify  | 0.25428    | 0.2866     | 0.30998    |   2.3 | 10.23
Other   |            | 0.05156    |            |       |  1.84

Nlocal:    13.3203 ave 19 max 8 min
Histogram: 7 12 11 21 17 18 14 15 8 5
Nghost:    2634.12 ave 2697 max 2588 min
Histogram: 13 10 13 21 27 18 15 5 2 4
Neighs:    5113.14 ave 8192 max 2493 min
Histogram: 4 10 21 23 20 14 16 5 11 4

Total # of neighbors = 654482
Ave neighs/atom = 383.86
Ave special neighs/atom = 1.95308
Neighbor list builds = 20
Dangerous builds = 0
PPPM initialization ...
  extracting TIP4P info from pair style
  using 12-bit tables for long-range coulomb (../kspace.cpp:321)
  G vector (1/distance) = 0.312644
  grid = 25 25 25
  stencil order = 5
  estimated absolute RMS force accuracy = 0.00327259
  estimated relative force accuracy = 9.85531e-06
  using double precision FFTs
  3d grid and FFT values/proc = 2156 200
Setting up Verlet run ...
  Unit style    : real
  Current step  : 5015000
  Time step     : 0.2
Per MPI rank memory allocation (min/avg/max) = 8.137 | 8.151 | 8.163 Mbytes
Step Density Temp Press TotEng 
 5015000    1.0700438    277.68899   -185.86422   -7848.5189 
 5020000    1.0700438    301.73652   -71.211176   -7741.3668 
Loop time of 3.00855 on 128 procs for 5000 steps with 1705 atoms

Performance: 28.718 ns/day, 0.836 hours/ns, 1661.932 timesteps/s
99.4% CPU use with 128 MPI tasks x no OpenMP threads

MPI task timing breakdown:
Section |  min time  |  avg time  |  max time  |%varavg| %total
---------------------------------------------------------------
Pair    | 0.20813    | 0.52883    | 0.83636    |  18.8 | 17.58
Bond    | 0.0003313  | 0.00040753 | 0.00066874 |   0.0 |  0.01
Kspace  | 1.3026     | 1.5887     | 1.8847     |  11.0 | 52.81
Neigh   | 0.008953   | 0.0091616  | 0.0093957  |   0.1 |  0.30
Comm    | 0.44436    | 0.48741    | 0.53949    |   3.2 | 16.20
Output  | 4.7138e-05 | 5.1632e-05 | 7.2606e-05 |   0.0 |  0.00
Modify  | 0.30084    | 0.34234    | 0.38164    |   3.2 | 11.38
Other   |            | 0.05166    |            |       |  1.72

Nlocal:    13.3203 ave 19 max 6 min
Histogram: 2 1 3 24 12 27 34 15 6 4
Nghost:    2644.67 ave 2715 max 2598 min
Histogram: 5 12 30 25 22 13 8 9 2 2
Neighs:    5113.26 ave 8501 max 1781 min
Histogram: 2 3 16 24 24 22 14 13 7 3

Total # of neighbors = 654497
Ave neighs/atom = 383.869
Ave special neighs/atom = 1.95308
Neighbor list builds = 42
Dangerous builds = 0
PPPM initialization ...
  extracting TIP4P info from pair style
  using 12-bit tables for long-range coulomb (../kspace.cpp:321)
  G vector (1/distance) = 0.312644
  grid = 25 25 25
  stencil order = 5
  estimated absolute RMS force accuracy = 0.00327259
  estimated relative force accuracy = 9.85531e-06
  using double precision FFTs
  3d grid and FFT values/proc = 2156 200
Setting up Verlet run ...
  Unit style    : real
  Current step  : 5020000
  Time step     : 0.5
Per MPI rank memory allocation (min/avg/max) = 8.137 | 8.151 | 8.163 Mbytes
Step Density Temp Press TotEng 
 5020000    1.0700438    301.73652   -74.498182   -7741.3668 
 5025000    1.0700438    286.86845    282.37736   -7797.5354 
Loop time of 2.99062 on 128 procs for 5000 steps with 1705 atoms

Performance: 72.226 ns/day, 0.332 hours/ns, 1671.892 timesteps/s
99.3% CPU use with 128 MPI tasks x no OpenMP threads

MPI task timing breakdown:
Section |  min time  |  avg time  |  max time  |%varavg| %total
---------------------------------------------------------------
Pair    | 0.24296    | 0.54228    | 0.84152    |  17.0 | 18.13
Bond    | 0.00033836 | 0.00040867 | 0.00066487 |   0.0 |  0.01
Kspace  | 1.3098     | 1.6068     | 1.8908     |  10.3 | 53.73
Neigh   | 0.022824   | 0.023765   | 0.024469   |   0.2 |  0.79
Comm    | 0.41673    | 0.46092    | 0.50818    |   3.2 | 15.41
Output  | 4.9182e-05 | 5.5263e-05 | 8.2715e-05 |   0.0 |  0.00
Modify  | 0.26885    | 0.3023     | 0.32532    |   2.3 | 10.11
Other   |            | 0.05411    |            |       |  1.81

Nlocal:    13.3203 ave 19 max 7 min
Histogram: 4 2 8 13 18 43 21 8 7 4
Nghost:    2634.26 ave 2682 max 2597 min
Histogram: 8 10 18 20 24 22 6 10 7 3
Neighs:    5111.47 ave 8127 max 2199 min
Histogram: 4 8 16 18 24 12 22 12 7 5

Total # of neighbors = 654268
Ave neighs/atom = 383.735
Ave special neighs/atom = 1.95308
Neighbor list builds = 104
Dangerous builds = 0
PPPM initialization ...
  extracting TIP4P info from pair style
  using 12-bit tables for long-range coulomb (../kspace.cpp:321)
  G vector (1/distance) = 0.312644
  grid = 25 25 25
  stencil order = 5
  estimated absolute RMS force accuracy = 0.00327259
  estimated relative force accuracy = 9.85531e-06
  using double precision FFTs
  3d grid and FFT values/proc = 2156 200
Setting up Verlet run ...
  Unit style    : real
  Current step  : 5025000
  Time step     : 2
Per MPI rank memory allocation (min/avg/max) = 8.137 | 8.151 | 8.163 Mbytes
Step Density Temp Press TotEng 
 5025000    1.0700438    286.86845    263.40551   -7797.5354 
 5100000    1.0700438    298.41644   -450.26598   -7711.9383 
 5200000    1.0700438    303.74848    1068.9889   -7704.7704 
 5300000    1.0700438    311.21551    563.69504   -7780.6115 
 5400000    1.0700438    300.08367   -457.81147   -7759.1353 
 5500000    1.0700438    304.68547    499.67077   -7722.0263 
 5600000    1.0700438    300.54072    963.33426   -7651.4121 
 5700000    1.0700438     300.6223    955.22848   -7693.7938 
 5800000    1.0700438    303.87124   -600.68639   -7694.9713 
 5900000    1.0700438    294.03104   -392.06682   -7734.8406 
 6000000    1.0700438    299.86283   -398.91804   -7766.1226 
 6100000    1.0700438    299.68657    552.24858   -7714.7951 
 6200000    1.0700438    298.32937   -37.143717   -7731.6006 
 6300000    1.0700438    294.37883   -560.58461   -7764.4457 
 6400000    1.0700438    298.05298    584.21907   -7712.7108 
 6500000    1.0700438    312.30689   -21.831585   -7668.4207 
 6600000    1.0700438    290.26572   -86.026201   -7737.4294 
 6700000    1.0700438    299.16935   -1076.0863   -7786.7124 
 6800000    1.0700438    303.57197    195.78166   -7764.4163 
 6900000    1.0700438    304.13435   -33.634106   -7669.7111 
 7000000    1.0700438    288.65326   -730.13363   -7706.2714 
 7025000    1.0700438    295.86833   -422.19694   -7785.5212 
Loop time of 1268.17 on 128 procs for 2000000 steps with 1705 atoms

Performance: 272.519 ns/day, 0.088 hours/ns, 1577.078 timesteps/s
99.4% CPU use with 128 MPI tasks x no OpenMP threads

MPI task timing breakdown:
Section |  min time  |  avg time  |  max time  |%varavg| %total
---------------------------------------------------------------
Pair    | 182.91     | 229.39     | 277.92     | 275.4 | 18.09
Bond    | 0.13523    | 0.16223    | 0.23392    |   5.2 |  0.01
Kspace  | 591.6      | 652.04     | 707.67     | 171.5 | 51.42
Neigh   | 35.618     | 36.566     | 37.373     |   7.0 |  2.88
Comm    | 181.92     | 199.63     | 217.58     |  59.4 | 15.74
Output  | 0.82166    | 0.82192    | 0.82257    |   0.0 |  0.06
Modify  | 114.23     | 127.5      | 136.8      |  43.9 | 10.05
Other   |            | 22.07      |            |       |  1.74

Nlocal:    13.3203 ave 19 max 8 min
Histogram: 5 10 12 20 21 20 18 12 7 3
Nghost:    2634.57 ave 2681 max 2584 min
Histogram: 3 3 12 18 15 32 27 6 8 4
Neighs:    5110.67 ave 8508 max 2363 min
Histogram: 2 10 20 24 27 15 14 11 4 1

Total # of neighbors = 654166
Ave neighs/atom = 383.675
Ave special neighs/atom = 1.95308
Neighbor list builds = 162051
Dangerous builds = 0
PPPM initialization ...
  extracting TIP4P info from pair style
  using 12-bit tables for long-range coulomb (../kspace.cpp:321)
  G vector (1/distance) = 0.312644
  grid = 25 25 25
  stencil order = 5
  estimated absolute RMS force accuracy = 0.00327259
  estimated relative force accuracy = 9.85531e-06
  using double precision FFTs
  3d grid and FFT values/proc = 2156 200
Setting up Verlet run ...
  Unit style    : real
  Current step  : 0
  Time step     : 2
Per MPI rank memory allocation (min/avg/max) = 13.61 | 13.63 | 13.65 Mbytes
Step Density Temp Press TotEng 
       0    1.0700438    295.86833   -421.84886   -7785.5212 
  100000    1.0700438    304.96458    204.55054   -7643.7787 
  200000    1.0700438    297.78368   -1308.9777     -7714.08 
  300000    1.0700438     298.6871     698.8869   -7692.0312 
  400000    1.0700438     306.7962   -479.21523   -7694.8091 
  500000    1.0700438    296.84509   -206.35793   -7708.7353 
  600000    1.0700438    286.79428    254.82259   -7766.3549 
  700000    1.0700438    295.82201    577.08832   -7706.9251 
  800000    1.0700438    292.15847    485.34646   -7756.4641 
  900000    1.0700438    300.67688    149.78599   -7673.1399 
 1000000    1.0700438    300.00533   -439.26025   -7710.2456 
 1100000    1.0700438    306.63791    297.59109   -7779.5417 
 1200000    1.0700438    294.40251    461.58813   -7759.6384 
 1300000    1.0700438    297.77094    415.60254   -7745.5868 
 1400000    1.0700438    293.23073     383.3369   -7790.7589 
 1500000    1.0700438    287.95256   -262.07573   -7763.9207 
 1600000    1.0700438    302.60183     -765.752   -7710.0973 
 1700000    1.0700438    292.98042   -314.75576   -7807.9424 
 1800000    1.0700438    297.00079   -231.48755   -7745.8821 
 1900000    1.0700438    300.06964   -187.19205   -7818.7638 
 2000000    1.0700438    294.04473    323.94977   -7733.0177 
 2100000    1.0700438     303.6214   -199.30499   -7761.5825 
 2200000    1.0700438    288.55657   -505.55932   -7756.6959 
 2300000    1.0700438    296.23132   -83.045896   -7759.5616 
 2400000    1.0700438    301.40374    321.93009   -7715.1463 
 2500000    1.0700438    295.26076   -272.14489   -7753.6824 
 2600000    1.0700438    297.25437   -84.110382   -7793.8884 
 2700000    1.0700438    299.09306    797.98142   -7746.6861 
 2800000    1.0700438     297.7116   -353.77259   -7826.1258 
 2900000    1.0700438     297.0867   -400.98574   -7764.9041 
 3000000    1.0700438    294.52186     371.1363   -7756.1039 
 3100000    1.0700438    307.31806    979.54427    -7810.086 
 3200000    1.0700438     304.8165    167.01839   -7760.4729 
 3300000    1.0700438    299.27964   -885.19982   -7804.3112 
 3400000    1.0700438    301.06723   -668.13902   -7721.5159 
 3500000    1.0700438    297.89088    310.47612   -7754.0692 
 3600000    1.0700438    288.01242    490.48823    -7690.498 
 3700000    1.0700438    303.00004    219.70683    -7774.885 
 3800000    1.0700438    299.34224   -670.80594   -7737.9471 
 3900000    1.0700438    295.67815   -323.50371   -7752.2042 
 4000000    1.0700438     301.5572   -944.61679   -7705.2143 
 4100000    1.0700438    306.44433    270.33226   -7658.9608 
 4200000    1.0700438    298.80266   -324.65307   -7803.3043 
 4300000    1.0700438    304.14634    370.26455   -7688.2457 
 4400000    1.0700438    293.00153    -103.3219   -7685.7572 
 4500000    1.0700438    299.62045   -764.30585   -7776.6375 
 4600000    1.0700438    309.87753   -77.306681   -7635.5429 
 4700000    1.0700438    294.28136   -81.504691   -7745.5748 
 4800000    1.0700438     296.5031    278.05912   -7749.0356 
 4900000    1.0700438    301.58111   -57.763334   -7756.3374 
 5000000    1.0700438    295.76246     -228.267   -7745.0264 
 5100000    1.0700438    298.34596   -28.819391   -7744.2654 
 5200000    1.0700438    288.21947    737.38309   -7775.8558 
 5300000    1.0700438    289.41591   -795.30051   -7763.2521 
 5400000    1.0700438    300.05354    555.15128   -7692.2443 
 5500000    1.0700438    299.32787     21.56827    -7742.771 
 5600000    1.0700438    289.22625    764.32897   -7798.5231 
 5700000    1.0700438    295.58345    511.53483   -7777.7861 
 5800000    1.0700438    290.21274   -462.83347   -7802.8642 
 5900000    1.0700438    291.75964    589.23776    -7782.213 
 6000000    1.0700438    300.45222   -235.68788   -7680.2734 
 6100000    1.0700438    305.70201    762.09915   -7701.3445 
 6200000    1.0700438    286.40135   -376.86469   -7788.3353 
 6300000    1.0700438    293.89213   -107.29348   -7732.2233 
 6400000    1.0700438     299.9234    98.324798    -7715.679 
 6500000    1.0700438    302.31225     918.1126   -7671.1949 
 6600000    1.0700438    309.23009    66.161735   -7684.8342 
 6700000    1.0700438    294.86719    840.98212   -7713.1934 
 6800000    1.0700438    304.56649    182.65614    -7677.268 
 6900000    1.0700438    294.81415   -1619.6404   -7778.0269 
 7000000    1.0700438    309.20155   -288.54557   -7712.8109 
 7100000    1.0700438    293.14922   -682.86654   -7801.0022 
 7200000    1.0700438    301.23324    711.66502    -7809.019 
 7300000    1.0700438    297.38448    53.658736   -7764.9988 
 7400000    1.0700438    292.67366   -266.12833   -7706.3051 
 7500000    1.0700438    304.18555   -153.17739   -7666.2297 
 7600000    1.0700438    298.42038    73.916279   -7721.0711 
 7700000    1.0700438    301.10307   -64.013962   -7698.8447 
 7800000    1.0700438    300.84238    269.80171   -7776.0053 
 7900000    1.0700438    300.76873   -13.526035   -7698.3859 
 8000000    1.0700438    305.11948   -413.40748   -7663.7774 
 8100000    1.0700438    288.60905    489.07044   -7775.3828 
 8200000    1.0700438    298.33505    477.65746   -7711.3037 
 8300000    1.0700438    293.12191    307.14346   -7807.6687 
 8400000    1.0700438    303.88308   -373.73216   -7708.5514 
 8500000    1.0700438     301.4634    481.79317   -7748.4737 
 8600000    1.0700438     281.1721    611.03969   -7745.6225 
 8700000    1.0700438    292.98978    584.81677   -7717.2905 
 8800000    1.0700438    305.28784    98.999289   -7701.9111 
 8900000    1.0700438    312.00898    474.69552   -7694.6995 
 9000000    1.0700438    291.50311      444.108   -7800.9679 
 9100000    1.0700438    306.08313    813.73072   -7708.3069 
 9200000    1.0700438    297.22574    588.39648   -7755.3015 
 9300000    1.0700438    301.48882   -168.88708   -7694.7232 
 9400000    1.0700438    304.44515   -105.46797   -7697.8381 
 9500000    1.0700438    304.82557   -466.23987   -7733.5645 
 9600000    1.0700438    305.24271    136.35913   -7658.6809 
 9700000    1.0700438    296.15173   -254.43733   -7797.3063 
 9800000    1.0700438    303.69668    263.63753   -7711.3036 
 9900000    1.0700438    296.64878   -251.22802   -7702.2928 
10000000    1.0700438    297.70071    546.85395   -7724.0084 
10100000    1.0700438    289.66642   -232.00399   -7830.0855 
10200000    1.0700438    289.00542    20.948116   -7779.0184 
10300000    1.0700438     301.6186   -806.18298    -7727.169 
10400000    1.0700438    304.41199   -1213.3733   -7785.5876 
10500000    1.0700438    299.99114   -80.614585    -7746.347 
10600000    1.0700438    297.69461    576.60798   -7747.1777 
10700000    1.0700438    290.19186    672.57758   -7797.8602 
10800000    1.0700438    306.97714    74.462303   -7685.7622 
10900000    1.0700438    295.45361   -141.27907   -7701.0184 
11000000    1.0700438    302.69266    -328.8846   -7668.4329 
11100000    1.0700438    314.70723     464.7109   -7727.3025 
11200000    1.0700438    294.27366   -130.30929     -7812.54 
11300000    1.0700438    286.90018    877.12668   -7763.2792 
11400000    1.0700438    292.68995    9.1802406   -7759.7776 
11500000    1.0700438    294.75524    965.81607   -7851.2571 
11600000    1.0700438    300.65984    160.85909   -7646.2713 
11700000    1.0700438    313.22267   -9.2983514   -7723.4313 
11800000    1.0700438    293.00276    20.353822   -7753.7715 
11900000    1.0700438    305.16782   -400.73577   -7710.9888 
12000000    1.0700438    295.87159    57.385868   -7776.6374 
12100000    1.0700438     305.6238    -1069.985    -7726.966 
12200000    1.0700438    298.16571   -350.79096   -7795.2249 
12300000    1.0700438    302.41381    154.83665   -7776.0283 
12400000    1.0700438     302.0904   -376.78032   -7759.7153 
12500000    1.0700438    294.16817      1331.83   -7770.4247 
12600000    1.0700438    297.91703    -293.0823   -7756.7039 
12700000    1.0700438    299.15125   -486.64082   -7706.2543 
12800000    1.0700438    308.77262    487.35486   -7690.9762 
12900000    1.0700438    295.00508     400.5707   -7801.3764 
13000000    1.0700438    294.57544    362.38473   -7725.9326 
13100000    1.0700438     296.2796   -594.79561   -7738.1305 
13200000    1.0700438    308.99169    624.98781   -7747.9287 
13300000    1.0700438    286.99124     255.3437   -7759.8349 
13400000    1.0700438    304.03601   -678.92556   -7737.0188 
13500000    1.0700438    287.63971   -150.66085   -7754.5965 
13600000    1.0700438    296.40744   -258.00393   -7765.5197 
13700000    1.0700438    296.20866     1196.106   -7687.9423 
13800000    1.0700438    307.79118   -1668.0397   -7718.6115 
13900000    1.0700438    295.12417    522.85298   -7748.1485 
14000000    1.0700438    294.47139   -340.18482   -7726.6419 
14100000    1.0700438    304.84487    435.16369   -7745.1531 
14200000    1.0700438    289.58728    439.16724   -7709.1611 
14300000    1.0700438    295.87012   -648.39246   -7745.3994 
14400000    1.0700438     307.7612   -192.89988   -7625.0568 
14500000    1.0700438    300.46568    1346.3982    -7735.115 
14600000    1.0700438      307.162   -1081.1181   -7676.5791 
14700000    1.0700438    302.92549   -300.80369   -7726.0912 
14800000    1.0700438    298.98983   -994.38252   -7732.7106 
14900000    1.0700438    289.94218   -92.374428   -7759.0859 
15000000    1.0700438     295.6724   -55.804417   -7710.1717 
15100000    1.0700438    302.71342   -477.91457   -7706.5364 
15200000    1.0700438    302.15438   -362.75129   -7776.4477 
15300000    1.0700438    301.01674   -1462.4078   -7805.1385 
15400000    1.0700438    305.50345   -1396.0512   -7733.9749 
15500000    1.0700438    294.61527   -420.44013   -7717.6838 
15600000    1.0700438    304.65317   -557.26467   -7702.9315 
15700000    1.0700438    297.84676    390.48968   -7784.2817 
15800000    1.0700438     294.4437   -283.21625   -7797.5748 
15900000    1.0700438     296.4652   -911.36696   -7771.1876 
16000000    1.0700438    299.64361   -460.13353    -7712.363 
16100000    1.0700438    306.73512   -196.58282   -7702.7005 
16200000    1.0700438    295.59074    548.02342   -7712.3775 
16300000    1.0700438    288.94443   -45.276132    -7724.433 
16400000    1.0700438    295.48329   -272.78928   -7785.3058 
16500000    1.0700438    301.46166    138.42388   -7740.4152 
16600000    1.0700438    288.29997   -58.986254   -7744.4001 
16700000    1.0700438    288.20583    -956.7922   -7828.6507 
16800000    1.0700438    299.52928    146.77679   -7734.4161 
16900000    1.0700438    297.11231   -325.92749   -7716.5943 
17000000    1.0700438    301.17182    981.84364   -7700.5193 
17100000    1.0700438    289.91536    -1226.725   -7770.1863 
17200000    1.0700438    302.92547   -435.04773   -7697.3587 
17300000    1.0700438    295.87504   -16.862206   -7709.0445 
17400000    1.0700438    295.50862    219.44652   -7775.0241 
17500000    1.0700438    299.79631    54.746202   -7759.3615 
17600000    1.0700438    300.05373   -194.89067   -7721.7632 
17700000    1.0700438    309.87785    252.89416    -7660.095 
17800000    1.0700438    293.44059   -168.75157   -7763.0725 
17900000    1.0700438     299.0498    7.7869244   -7759.9608 
18000000    1.0700438    301.66204   -112.53797   -7715.4607 
18100000    1.0700438    286.30331   -562.90908   -7756.5498 
18200000    1.0700438    302.41203    677.15602   -7691.4384 
18300000    1.0700438    311.90417   -584.40904   -7685.7691 
18400000    1.0700438    296.97905    289.98492   -7659.9439 
18500000    1.0700438    297.52813   -366.09922    -7784.367 
18600000    1.0700438    307.30841    1057.6551   -7677.4094 
18700000    1.0700438    295.84989   -444.44878   -7708.4989 
18800000    1.0700438    302.03914   -522.82885   -7685.2988 
18900000    1.0700438    289.66992    -769.8806   -7820.2739 
19000000    1.0700438    305.62541    334.09899   -7631.1649 
19100000    1.0700438    300.86767    330.15918   -7752.0437 
19200000    1.0700438    302.09856   -338.39399    -7729.876 
19300000    1.0700438    290.85024    736.88319   -7798.3545 
19400000    1.0700438    304.97575   -378.25393   -7710.2453 
19500000    1.0700438    299.16541   -78.336847   -7753.4347 
19600000    1.0700438     293.8581    645.21028    -7775.622 
19700000    1.0700438    298.54754    616.33132   -7741.5599 
19800000    1.0700438    295.54648    643.90841   -7813.9709 
19900000    1.0700438    291.24428   -609.32573    -7754.988 
20000000    1.0700438    309.81239   -395.37662   -7727.7994 
20100000    1.0700438    294.24342    267.03689   -7767.3194 
20200000    1.0700438     300.3336     746.1893   -7656.4006 
20300000    1.0700438    296.24441   -50.560703   -7732.8407 
20400000    1.0700438    299.72395   -364.41682   -7627.6733 
20500000    1.0700438    299.65995   -404.12534   -7672.7243 
20600000    1.0700438    298.90689   -468.96002   -7771.6737 
20700000    1.0700438     280.3011    -836.3285   -7768.0048 
20800000    1.0700438    305.04293   -670.65655   -7698.0389 
20900000    1.0700438    297.38909    138.73601   -7741.4019 
21000000    1.0700438    289.34045    153.07202   -7802.2566 
21100000    1.0700438     310.5505    626.43071   -7686.0729 
21200000    1.0700438    301.74105    212.67714   -7710.7792 
21300000    1.0700438    294.40808    14.052624    -7725.601 
21400000    1.0700438     294.7681    568.53159   -7695.6933 
21500000    1.0700438    293.25325    462.65106   -7776.3164 
21600000    1.0700438    293.22327    -441.6475   -7695.9288 
21700000    1.0700438    303.44238    293.18761   -7744.6069 
21800000    1.0700438    305.93863    465.22109   -7728.7089 
21900000    1.0700438    311.24677    418.31948    -7671.481 
22000000    1.0700438    299.98945    785.06137     -7662.75 
22100000    1.0700438    297.42011     648.0289   -7733.5463 
22200000    1.0700438    295.69682    491.13838     -7745.77 
22300000    1.0700438     297.2617    166.12836   -7756.5973 
22400000    1.0700438    310.23427   -220.62776   -7761.8356 
22500000    1.0700438    305.76585   -544.18637   -7746.1582 
22600000    1.0700438    296.29439    240.99105   -7765.0945 
22700000    1.0700438    303.94297    724.22622   -7760.0141 
22800000    1.0700438    290.30592     449.4911   -7805.7358 
22900000    1.0700438    290.12557    -374.1535   -7732.8487 
23000000    1.0700438    298.35195     -630.419    -7698.386 
23100000    1.0700438    304.63677    397.25713   -7749.5691 
23200000    1.0700438     304.9611   -409.64535   -7768.8036 
23300000    1.0700438    294.68351   -99.712306   -7747.0066 
23400000    1.0700438    302.79316    468.22148   -7692.4849 
23500000    1.0700438     301.3596    444.86912   -7761.3869 
23600000    1.0700438    291.62404    322.53425   -7770.3431 
23700000    1.0700438    296.64278   -634.50527   -7734.8089 
23800000    1.0700438    288.65316   -505.72268    -7779.202 
23900000    1.0700438    290.22615   -418.95668   -7754.4613 
24000000    1.0700438    304.77151    209.25515   -7691.5485 
24100000    1.0700438    297.49687   -48.932091   -7729.8057 
24200000    1.0700438     299.6622    -474.6487   -7694.6862 
24300000    1.0700438    307.06086   -464.65086    -7715.084 
24400000    1.0700438    283.20092    8.5620142   -7788.1472 
24500000    1.0700438    298.71821   -106.25441   -7716.6315 
24600000    1.0700438    294.15762    399.62588   -7705.9733 
24700000    1.0700438    302.97809    1045.7622   -7757.6233 
24800000    1.0700438     290.7226    358.21217   -7814.6126 
24900000    1.0700438    292.50777   -798.59032   -7694.4962 
25000000    1.0700438    304.18666    162.75159   -7711.5683 
25100000    1.0700438    304.57173    925.39999   -7710.0915 
25200000    1.0700438    299.87683    17.298507   -7786.6769 
25300000    1.0700438    305.09593     622.8444   -7723.1344 
25400000    1.0700438    297.56866   -797.41483   -7771.3861 
25500000    1.0700438    303.20964    300.65634   -7737.6012 
25600000    1.0700438    308.47194     300.0222   -7662.2717 
25700000    1.0700438    312.00012    522.57248     -7689.36 
25800000    1.0700438     297.4432   -225.80253   -7766.4072 
25900000    1.0700438    294.64271    682.01111    -7679.111 
26000000    1.0700438     304.1735     385.3615   -7609.5663 
26100000    1.0700438     298.6177   -93.769657   -7773.0837 
26200000    1.0700438    311.00334    143.22273   -7667.6529 
26300000    1.0700438    290.04315    357.84183   -7762.2173 
26400000    1.0700438    303.49084   -913.10229   -7727.6113 
26500000    1.0700438    301.00661    655.98927   -7739.6329 
26600000    1.0700438    307.96481   -535.77733     -7724.88 
26700000    1.0700438    300.05347    997.01792   -7731.3037 
26800000    1.0700438    297.10121   -524.68774   -7736.0968 
26900000    1.0700438    292.65283   -9.6114333   -7805.3263 
27000000    1.0700438    305.83161    427.43769   -7762.0265 
27100000    1.0700438    289.31861    595.33409   -7716.0084 
27200000    1.0700438    289.30541    193.54738    -7747.566 
27300000    1.0700438    295.14343   -726.20646   -7690.0559 
27400000    1.0700438    292.50235    78.701775   -7762.2388 
27500000    1.0700438    297.52134   -962.26125   -7718.7228 
27600000    1.0700438    286.16453   -444.87774   -7772.3599 
27700000    1.0700438    291.74617   -571.95196   -7784.8317 
27800000    1.0700438    299.18503   -269.28352    -7697.302 
27900000    1.0700438    288.20046   -84.883231   -7844.5985 
28000000    1.0700438     280.5362   -647.69753   -7754.0451 
28100000    1.0700438    288.86622   -799.74609   -7723.9122 
28200000    1.0700438    299.53969   -126.70371   -7729.7535 
28300000    1.0700438    306.21721     380.2184   -7738.4827 
28400000    1.0700438    293.20906    533.96384   -7783.1038 
28500000    1.0700438    307.64095    1361.1602   -7738.2702 
28600000    1.0700438    299.18163    11.669004   -7731.5023 
28700000    1.0700438    304.50333    813.73922   -7694.2403 
28800000    1.0700438    294.27068    164.84629   -7795.3765 
28900000    1.0700438    300.80227    23.161871    -7780.505 
29000000    1.0700438    308.46989    517.13016   -7721.9297 
29100000    1.0700438     304.9539    1294.9952   -7706.2268 
29200000    1.0700438    297.74999   -918.43331   -7741.0176 
29300000    1.0700438    295.30246   -1320.8273   -7713.9756 
29400000    1.0700438    303.41522    21.224385   -7687.1181 
29500000    1.0700438    300.04702    560.23013   -7720.6564 
29600000    1.0700438    297.68589     146.7056   -7708.4764 
29700000    1.0700438    293.62257   -712.53562   -7801.1249 
29800000    1.0700438    303.66486   -539.45743   -7694.7298 
29900000    1.0700438    293.61316   -685.25406   -7772.7066 
30000000    1.0700438    303.10593   -151.07858   -7708.1871 
30100000    1.0700438    310.85051    60.443756   -7665.7912 
30200000    1.0700438    306.50949    234.96232    -7785.805 
30300000    1.0700438    294.93482   -403.91415   -7788.2664 
30400000    1.0700438    297.08489   -393.69036   -7749.1271 
30500000    1.0700438    303.25077   -921.50144   -7740.4369 
30600000    1.0700438    294.03409    329.82781   -7753.6693 
30700000    1.0700438    308.14888    1219.3189   -7702.4723 
30800000    1.0700438    298.08762   -527.90255   -7793.1237 
30900000    1.0700438    312.63251    334.92581   -7755.9842 
31000000    1.0700438    297.27953    1346.1502   -7753.9626 
31100000    1.0700438    308.43071    623.34665   -7657.7881 
31200000    1.0700438    295.10964    -440.0782   -7735.6227 
31300000    1.0700438    306.69359   -454.61749   -7686.0795 
31400000    1.0700438    302.24117    -384.3126   -7707.4035 
31500000    1.0700438    299.56079    275.31284   -7735.7478 
31600000    1.0700438    299.93849    47.859438   -7682.2986 
31700000    1.0700438    294.33385    341.80692   -7792.9681 
31800000    1.0700438    295.32469   -653.68832   -7725.9939 
31900000    1.0700438    281.49862    -963.5535   -7842.4738 
32000000    1.0700438    316.03265   -36.384235   -7645.1102 
32100000    1.0700438    292.98098   -2.5693315    -7702.151 
32200000    1.0700438    300.79742   -610.65015    -7761.923 
32300000    1.0700438    310.63877    831.75297   -7623.2249 
32400000    1.0700438    305.93037   -257.27316   -7738.3541 
32500000    1.0700438    305.67393   -394.17072   -7649.9746 
32600000    1.0700438    283.26473   -12.549321   -7776.1268 
32700000    1.0700438    292.40127   -338.14366   -7826.5332 
32800000    1.0700438    290.14924     771.7923   -7813.9812 
32900000    1.0700438    287.54734   -415.18654   -7818.7315 
33000000    1.0700438     302.1286   -66.784825     -7732.43 
33100000    1.0700438    314.60846    975.48005   -7693.5505 
33200000    1.0700438    302.76629   -1094.1508   -7742.4442 
33300000    1.0700438    311.82404    953.80024   -7714.0337 
33400000    1.0700438      291.324   -325.24106    -7734.486 
33500000    1.0700438    300.55285     732.8496   -7676.0622 
33600000    1.0700438    292.90537    18.780291   -7764.4071 
33700000    1.0700438    294.93766    454.96024   -7797.8643 
33800000    1.0700438     285.1201   -1002.0992   -7840.9899 
33900000    1.0700438    309.61666    1337.6782   -7686.1084 
34000000    1.0700438    311.69489    281.94701   -7692.9438 
34100000    1.0700438    297.14848   -172.70328   -7747.2186 
34200000    1.0700438     296.5568   -119.55463   -7739.9035 
34300000    1.0700438    298.58122    -208.4524   -7760.3122 
34400000    1.0700438     294.5893    255.78403   -7756.5856 
34500000    1.0700438    300.32683    655.73625   -7697.0531 
34600000    1.0700438    296.57812   -604.41962   -7753.7471 
34700000    1.0700438    296.89864    49.147309   -7758.0073 
34800000    1.0700438    300.69213   -539.53197   -7759.0697 
34900000    1.0700438    305.76391   -238.31918   -7648.4749 
35000000    1.0700438    297.19432   -1137.1667   -7790.5523 
35100000    1.0700438    298.88615   -371.95866   -7717.1598 
35200000    1.0700438    299.07954    186.76061   -7707.1196 
35300000    1.0700438    307.14837   -623.40276   -7667.4147 
35400000    1.0700438     305.3944   -193.37005   -7706.4945 
35500000    1.0700438    301.68329   -481.17731   -7733.1606 
35600000    1.0700438    297.90363   -332.75488   -7754.3702 
35700000    1.0700438    305.15077    14.866239    -7705.126 
35800000    1.0700438    301.03645   -1269.2947   -7675.9694 
35900000    1.0700438    291.43433   -58.016761   -7752.2125 
36000000    1.0700438    286.29738   -455.64783   -7740.6839 
36100000    1.0700438    292.73514    385.63047   -7841.9446 
36200000    1.0700438      302.037   -134.15399    -7758.661 
36300000    1.0700438    297.87436   -494.56606   -7656.9936 
36400000    1.0700438     288.8674     -157.992   -7802.6693 
36500000    1.0700438    293.99346     279.3001   -7765.6328 
36600000    1.0700438    307.42335    -369.4727   -7704.3968 
36700000    1.0700438    282.20665   -531.51999    -7711.873 
36800000    1.0700438    287.97075   -8.9445332   -7818.6587 
36900000    1.0700438    289.92157   -515.34296    -7774.746 
37000000    1.0700438    296.64989    -1465.641   -7812.2527 
37100000    1.0700438    297.21978    246.15397   -7768.6352 
37200000    1.0700438    298.43575      395.921   -7824.1037 
37300000    1.0700438    309.04729    163.02793   -7700.4727 
37400000    1.0700438    296.41392    15.298499   -7695.6787 
37500000    1.0700438    299.12655   -232.72085   -7659.4903 
37600000    1.0700438    303.43185    275.84528   -7764.6435 
37700000    1.0700438    293.91288   -438.39938   -7708.0079 
37800000    1.0700438    295.11967    -342.3682   -7779.2411 
37900000    1.0700438     289.3181    316.02616   -7760.0317 
38000000    1.0700438    306.55271    388.42879   -7720.1895 
38100000    1.0700438    296.07174    978.89113   -7740.7622 
38200000    1.0700438    310.13371    -116.7197   -7721.6911 
38300000    1.0700438     289.3555    164.02884   -7763.3013 
38400000    1.0700438    301.17342    786.33224    -7709.864 
38500000    1.0700438    288.61249    253.86623    -7840.344 
38600000    1.0700438    300.39355     369.2969   -7781.4414 
38700000    1.0700438    288.16799   -495.97473   -7737.4259 
38800000    1.0700438    296.02514   -269.72754   -7724.1313 
38900000    1.0700438    295.84069    699.18095   -7745.1641 
39000000    1.0700438    299.50259    117.50796    -7732.002 
39100000    1.0700438    305.63191   -473.29817   -7695.9841 
39200000    1.0700438    304.84946    545.29173   -7756.5065 
39300000    1.0700438    294.05357    45.736815   -7753.7524 
39400000    1.0700438    302.61185    143.59867   -7684.4798 
39500000    1.0700438    296.06148    47.066499   -7757.3421 
39600000    1.0700438    300.68714    262.20977    -7714.067 
39700000    1.0700438    299.07306   -611.88703   -7682.4083 
39800000    1.0700438    291.63291    66.333687   -7749.8085 
39900000    1.0700438    292.19469   -663.49126   -7790.3002 
40000000    1.0700438    305.24128   -49.650365   -7695.2428 
40100000    1.0700438    288.40751    424.82129   -7813.3619 
40200000    1.0700438    293.37512    25.985915   -7746.4197 
40300000    1.0700438    297.84639    66.586613   -7811.4461 
40400000    1.0700438    299.50166   -360.28509   -7744.7796 
40500000    1.0700438    286.92653   -147.21783   -7857.6864 
40600000    1.0700438    307.30328    44.455904   -7692.0451 
40700000    1.0700438      292.495   -113.86453   -7728.6673 
40800000    1.0700438    293.93318    595.60662   -7723.0884 
40900000    1.0700438    294.52186    738.24846    -7769.806 
41000000    1.0700438    295.35901     371.5834   -7780.2008 
41100000    1.0700438     303.9519   -111.68117   -7744.5994 
41200000    1.0700438     290.3483    95.958853   -7754.0106 
41300000    1.0700438    295.96423     518.3107   -7740.6829 
41400000    1.0700438    298.17769   -57.751539   -7731.5546 
41500000    1.0700438    304.23705    114.17822   -7709.4924 
41600000    1.0700438    290.29729    536.38765   -7796.2728 
41700000    1.0700438    305.06013   -93.101624   -7761.9968 
41800000    1.0700438    293.48636    481.21066   -7749.1162 
41900000    1.0700438    290.88783    170.13547   -7811.2885 
42000000    1.0700438    295.46034   -305.23624   -7725.4294 
42100000    1.0700438    296.10216    158.02318   -7804.3282 
42200000    1.0700438    318.72809    92.726228   -7662.6264 
42300000    1.0700438    303.10864    114.75473   -7776.3561 
42400000    1.0700438    286.38109   -166.85412   -7746.3657 
42500000    1.0700438    306.29529    481.64429   -7652.9917 
42600000    1.0700438    293.13686   -355.71216     -7710.47 
42700000    1.0700438    301.58579   -15.359376   -7754.6121 
42800000    1.0700438    298.66849   -260.57697   -7732.5648 
42900000    1.0700438    287.26992   -67.591414   -7787.4559 
43000000    1.0700438    297.72262    415.34679   -7697.3383 
43100000    1.0700438    295.03881    349.60452   -7785.3534 
43200000    1.0700438    292.00417   -433.15409   -7741.1494 
43300000    1.0700438    284.27206    284.56993   -7750.2096 
43400000    1.0700438    304.64453   -238.83653   -7760.9913 
43500000    1.0700438    297.35498   -495.62322   -7745.1237 
43600000    1.0700438    292.19034   -100.96093   -7770.1517 
43700000    1.0700438     292.9244    51.714786   -7748.8278 
43800000    1.0700438    304.13573   -1490.8493   -7650.4837 
43900000    1.0700438    298.65061    97.992116   -7765.9203 
44000000    1.0700438    300.30394    1109.6228   -7704.5878 
44100000    1.0700438    300.35306    95.158045   -7784.9877 
44200000    1.0700438    290.00096   -455.16113   -7737.2228 
44300000    1.0700438    296.22202   -272.82006   -7793.3076 
44400000    1.0700438    296.72393   -705.33855    -7728.417 
44500000    1.0700438    293.05792    132.85654    -7767.704 
44600000    1.0700438    288.16255   -789.95872   -7788.5932 
44700000    1.0700438    308.90434    203.93929   -7680.1167 
44800000    1.0700438    307.66154    -537.4066   -7687.4851 
44900000    1.0700438    295.02349    200.92092    -7761.171 
45000000    1.0700438     291.8379   -521.13512   -7750.8774 
45100000    1.0700438    313.57239    74.143523   -7664.3382 
45200000    1.0700438    296.39761   -192.05319   -7766.6346 
45300000    1.0700438    297.29604    687.77129   -7688.0817 
45400000    1.0700438    297.35605    208.32385   -7742.5359 
45500000    1.0700438    293.54941    1117.2885   -7824.7915 
45600000    1.0700438    296.12301    1023.8058   -7756.7896 
45700000    1.0700438      298.205    67.070485    -7762.317 
45800000    1.0700438    306.52968    723.21899   -7635.1607 
45900000    1.0700438    294.63245    191.21181   -7734.6097 
46000000    1.0700438     285.0906    50.872496   -7759.2263 
46100000    1.0700438    310.39562   -35.026028   -7666.9593 
46200000    1.0700438    285.60453    672.80409   -7774.7586 
46300000    1.0700438    305.02387   -471.37807   -7720.9893 
46400000    1.0700438    298.80809    940.94933   -7799.6989 
46500000    1.0700438     294.3012   -829.87626   -7787.8011 
46600000    1.0700438    307.37752    810.21443   -7649.8714 
46700000    1.0700438    297.13449    117.72871   -7778.4448 
46800000    1.0700438    304.83982   -621.25581   -7751.0519 
46900000    1.0700438    303.21072    532.56711   -7706.3732 
47000000    1.0700438    307.29788   -81.835702   -7747.7755 
47100000    1.0700438    289.01835    1187.2758   -7753.6584 
47200000    1.0700438    306.34504    695.84011   -7716.4349 
47300000    1.0700438    297.41974    193.38122   -7787.2778 
47400000    1.0700438    296.18964   -359.12861   -7705.9713 
47500000    1.0700438    310.43824   -146.33252   -7710.1593 
47600000    1.0700438    293.68369    131.12393   -7737.8465 
47700000    1.0700438    300.49282   -664.52762   -7803.6727 
47800000    1.0700438    300.27007   -174.85415   -7784.3029 
47900000    1.0700438    303.74983     762.8643   -7636.0431 
48000000    1.0700438    298.57535    650.54686   -7745.4829 
48100000    1.0700438    288.28798   -298.46573   -7804.3553 
48200000    1.0700438    295.67844    270.42249   -7692.8608 
48300000    1.0700438    291.47062    909.92683    -7747.547 
48400000    1.0700438    298.84421   -90.394935   -7688.7259 
48500000    1.0700438    306.28445    185.41495    -7689.623 
48600000    1.0700438    280.82318   -132.63057   -7769.4153 
48700000    1.0700438    293.41466    846.24165   -7655.6884 
48800000    1.0700438    302.31437   -156.26032   -7739.8114 
48900000    1.0700438    311.97086   -286.06473   -7638.9043 
49000000    1.0700438    289.51506    316.93255   -7719.6049 
49100000    1.0700438    290.67404   -355.32152   -7784.9736 
49200000    1.0700438    301.09391    394.10637   -7752.3008 
49300000    1.0700438    303.59707   -317.59271   -7736.7804 
49400000    1.0700438    298.91378    388.97941   -7722.6286 
49500000    1.0700438    291.46415    360.25483   -7742.3468 
49600000    1.0700438    293.83011   -170.55658   -7812.1159 
49700000    1.0700438    309.54626   -507.36241   -7669.6772 
49800000    1.0700438    293.54713    163.96351   -7785.9187 
49900000    1.0700438    291.57154    437.79335   -7725.8748 
50000000    1.0700438    301.85733    138.61789   -7700.1664 
50100000    1.0700438    295.79776    2.6189943   -7668.5242 
50200000    1.0700438    289.88203    225.07222   -7769.1122 
50300000    1.0700438    292.67551    1282.3314   -7731.8782 
50400000    1.0700438    300.38971   -15.690482   -7734.2458 
50500000    1.0700438    302.42413    540.33277   -7724.3773 
50600000    1.0700438    294.63713    13.928396    -7754.981 
50700000    1.0700438    305.46397    233.08246   -7712.8499 
50800000    1.0700438    292.35637    11.733035   -7730.6158 
50900000    1.0700438    297.73352   -83.163179   -7651.0139 
51000000    1.0700438     286.2041   -157.08622   -7757.8369 
51100000    1.0700438     288.4294    1340.3291   -7807.2439 
51200000    1.0700438    300.11332    92.652211   -7686.0266 
51300000    1.0700438    293.43316    16.067074   -7762.3328 
51400000    1.0700438    291.35592    600.10743   -7749.8338 
51500000    1.0700438    298.99742    69.841083   -7713.2926 
51600000    1.0700438    297.57566    43.508861   -7736.9337 
51700000    1.0700438    301.97934    408.90771   -7704.3901 
51800000    1.0700438    298.32663   -223.37131   -7759.8748 
51900000    1.0700438    291.70045    322.70778   -7691.0496 
52000000    1.0700438    304.14603   -635.31646   -7723.5105 
52100000    1.0700438    295.58539   -172.36545    -7733.076 
52200000    1.0700438    292.99596     -201.324    -7788.892 
52300000    1.0700438    306.90666      458.887   -7761.4504 
52400000    1.0700438    295.96148    734.66937   -7725.6974 
52500000    1.0700438    286.53613    152.41563   -7751.7482 
52600000    1.0700438     304.7603    93.469631   -7688.7912 
52700000    1.0700438    303.67248    695.84784   -7770.9844 
52800000    1.0700438    290.86926   -264.87918   -7754.2222 
52900000    1.0700438    293.66546    543.40014   -7734.3566 
53000000    1.0700438    294.11487    -628.0657   -7693.3013 
53100000    1.0700438    306.00879    337.19597   -7783.4643 
53200000    1.0700438     298.8168    33.793806   -7761.5746 
53300000    1.0700438    302.13719   -856.74528   -7692.7782 
53400000    1.0700438    300.30379   -15.038271   -7739.4704 
53500000    1.0700438    302.72073    -149.2299    -7708.028 
53600000    1.0700438    304.99377    110.79347   -7602.5457 
53700000    1.0700438    296.17298    327.29049   -7737.9919 
53800000    1.0700438    304.67167    677.64353   -7705.4506 
53900000    1.0700438    297.12279    1055.4792   -7722.8227 
54000000    1.0700438     303.2231    -372.3533   -7690.6274 
54100000    1.0700438     287.4508   -163.92724   -7744.5202 
54200000    1.0700438    296.45627    192.71886   -7748.8871 
54300000    1.0700438     304.7726   -138.15529   -7783.9227 
54400000    1.0700438    309.24067   -664.78411   -7721.0131 
54500000    1.0700438    298.37028    231.18497   -7748.1849 
54600000    1.0700438    298.10485   -333.96613    -7824.732 
54700000    1.0700438     307.3605   -602.82346    -7713.839 
54800000    1.0700438    297.13019    400.77571   -7732.4084 
54900000    1.0700438    310.56041    576.21393   -7694.3809 
55000000    1.0700438     311.7794    138.65801   -7728.7826 
55100000    1.0700438    310.97268    890.44358   -7677.0575 
55200000    1.0700438     286.7134    177.98325   -7708.3437 
55300000    1.0700438    300.49867   -306.91164   -7761.9931 
55400000    1.0700438    291.87017   -583.16759    -7709.888 
55500000    1.0700438    300.12461    315.06425   -7726.5992 
55600000    1.0700438    294.62371   -211.16995   -7784.8222 
55700000    1.0700438    302.89777    -164.4704   -7721.3971 
55800000    1.0700438    298.67781    418.06653   -7780.5376 
55900000    1.0700438    295.70024   -738.76646   -7819.5491 
56000000    1.0700438    297.19646   -500.79483   -7768.6507 
56100000    1.0700438    280.95966    93.169924   -7776.1474 
56200000    1.0700438    301.89437    791.36804   -7763.2312 
56300000    1.0700438      301.611   -763.12884    -7758.097 
56400000    1.0700438    303.37399   -337.86241   -7700.5876 
56500000    1.0700438    297.51229   -286.84841    -7748.333 
56600000    1.0700438    300.07641   -138.69551   -7759.6492 
56700000    1.0700438    303.91196   -908.18414   -7768.9141 
56800000    1.0700438    301.86784   -80.038734   -7792.8299 
56900000    1.0700438    302.27214    351.35055   -7710.6363 
57000000    1.0700438    296.16124    141.54304    -7719.445 
57100000    1.0700438    297.83085    -330.2446   -7716.8724 
57200000    1.0700438    301.12153    704.24924   -7728.0062 
57300000    1.0700438    283.06235    671.69896   -7762.5451 
57400000    1.0700438    288.49062    320.81608   -7767.8226 
57500000    1.0700438    303.14099    129.53571   -7664.6949 
57600000    1.0700438    287.54213    47.216136   -7754.6621 
57700000    1.0700438    300.32785    188.86684   -7743.2009 
57800000    1.0700438    296.81134   -99.470459   -7705.8737 
57900000    1.0700438    298.06672    91.681848   -7763.5552 
58000000    1.0700438    296.22881   -1014.2446   -7675.7262 
58100000    1.0700438     295.5638   -90.410248   -7747.7035 
58200000    1.0700438    295.06658   -162.13071   -7762.7832 
58300000    1.0700438    295.85416    712.69032   -7729.1574 
58400000    1.0700438    308.78568     -74.3791   -7761.0297 
58500000    1.0700438    302.61542   -940.28489   -7744.6916 
58600000    1.0700438    292.17737    -1242.602   -7766.6694 
58700000    1.0700438     298.0094    71.604861   -7763.1613 
58800000    1.0700438    301.15623    60.617702   -7812.4937 
58900000    1.0700438    284.96588    681.59057   -7749.4123 
59000000    1.0700438    283.17756    441.88932   -7788.8315 
59100000    1.0700438     293.0044   -456.40999   -7772.6844 
59200000    1.0700438     297.4025   -263.21073   -7793.8936 
59300000    1.0700438    307.99022    710.90592   -7643.4542 
59400000    1.0700438    295.83586   -188.28729   -7749.1682 
59500000    1.0700438    294.93776    758.15218   -7762.0134 
59600000    1.0700438    301.07807   -529.38107   -7698.0664 
59700000    1.0700438    299.51637   -440.54828   -7747.2203 
59800000    1.0700438    312.62182    126.34083   -7670.7881 
59900000    1.0700438    301.49684    327.37662   -7713.9143 
60000000    1.0700438    283.18466    867.00504    -7742.398 
60100000    1.0700438    285.03442    253.28964   -7781.4579 
60200000    1.0700438     310.1365    8.3823877   -7675.4581 
60300000    1.0700438    291.09544   -195.35818   -7819.8173 
60400000    1.0700438     301.2975    -122.0426   -7776.5111 
60500000    1.0700438    296.13397    1155.7125    -7770.439 
60600000    1.0700438    293.84724   -286.79068   -7669.6516 
60700000    1.0700438    298.40099   -1048.9289   -7707.1655 
60800000    1.0700438    298.46576   -434.68712    -7792.035 
60900000    1.0700438    283.40491    40.566493    -7814.466 
61000000    1.0700438    310.04506    569.11719   -7727.8603 
61100000    1.0700438    300.06002    413.02307   -7721.3651 
61200000    1.0700438    288.23623    312.27575   -7776.6651 
61300000    1.0700438    305.78472   -914.43173    -7737.919 
61400000    1.0700438    302.59289    570.30349    -7718.637 
61500000    1.0700438     297.6351   -369.22584   -7713.5991 
61600000    1.0700438    283.85064    462.29411   -7795.7172 
61700000    1.0700438    309.35286    258.40507   -7726.9367 
61800000    1.0700438    295.26367   -49.291863   -7723.2682 
61900000    1.0700438    298.07502   -388.01347    -7700.273 
62000000    1.0700438    291.77095   -735.76226   -7713.0395 
62100000    1.0700438    299.01847    116.80789   -7702.9184 
62200000    1.0700438    303.57103    874.00573   -7689.1652 
62300000    1.0700438     291.6531   -95.421664   -7814.5533 
62400000    1.0700438    299.74257    -169.7168   -7738.8569 
62500000    1.0700438    298.14306   -1028.7816   -7730.1992 
62600000    1.0700438    299.17301   -1122.5014   -7639.1073 
62700000    1.0700438    301.75828   -633.44409   -7639.7787 
62800000    1.0700438    303.68808   -217.22158   -7741.2825 
62900000    1.0700438    301.53417    952.76941   -7692.5923 
63000000    1.0700438    299.40277   -515.54389   -7750.6297 
63100000    1.0700438     310.5421    170.92272   -7722.7781 
63200000    1.0700438    294.50136   -17.811435   -7763.0634 
63300000    1.0700438    314.78696    622.36075   -7635.5015 
63400000    1.0700438    315.26992    575.39893   -7658.2789 
63500000    1.0700438    305.07434    103.11822    -7700.789 
63600000    1.0700438    309.75309    -336.2454   -7710.2476 
63700000    1.0700438    288.22963   -708.67267   -7812.2918 
63800000    1.0700438    300.27773   -50.107212   -7714.3051 
63900000    1.0700438    298.33517   -379.90742   -7806.3427 
64000000    1.0700438    285.74863   -254.24075   -7818.5634 
64100000    1.0700438    299.01705    307.37093   -7751.1274 
64200000    1.0700438    297.73928   -780.03534    -7755.466 
64300000    1.0700438    288.55771   -1077.8233   -7733.9772 
64400000    1.0700438    305.50609   -380.62343   -7786.5913 
64500000    1.0700438    309.67999    -202.6532   -7667.9638 
64600000    1.0700438    290.62406    245.83285    -7742.513 
64700000    1.0700438    292.84614   -793.30756   -7735.8451 
64800000    1.0700438    298.15213   -536.41928   -7754.4711 
64900000    1.0700438      297.216   -263.83319   -7702.7083 
65000000    1.0700438    296.37716    451.29625    -7796.506 
65100000    1.0700438    292.97388    986.13477   -7732.0135 
65200000    1.0700438    305.85968   -620.88865   -7767.8169 
65300000    1.0700438     294.8074   -484.91954    -7776.006 
65400000    1.0700438     286.7389    235.69248   -7725.0168 
65500000    1.0700438    292.95502   -235.83221   -7729.5275 
65600000    1.0700438    304.43635   -111.60716     -7756.65 
65700000    1.0700438    288.39732    157.13549    -7750.557 
65800000    1.0700438    293.98913   -549.81256    -7768.085 
65900000    1.0700438    295.20958   -757.11978   -7721.0449 
66000000    1.0700438    304.81925    211.58082   -7702.5892 
66100000    1.0700438    292.90698   -88.768341   -7787.2584 
66200000    1.0700438    283.16156    11.137394   -7827.1197 
66300000    1.0700438    289.05459    48.590463    -7745.305 
66400000    1.0700438    284.96627   -199.58253   -7731.4199 
66500000    1.0700438    315.50774   -383.55276   -7699.0736 
66600000    1.0700438    298.90037     910.0509   -7689.8669 
66700000    1.0700438    306.38807    -545.7374   -7695.1111 
66800000    1.0700438    297.28643   -787.76497    -7776.451 
66900000    1.0700438     294.2146   -538.05396   -7758.9983 
67000000    1.0700438    298.44302    -821.0239   -7786.4097 
67100000    1.0700438    303.95526   -152.87779   -7766.0069 
67200000    1.0700438    286.45197   -455.33551   -7747.2028 
67300000    1.0700438    286.59713   -635.11021   -7793.5784 
67400000    1.0700438    296.33123    339.50514   -7748.9837 
67500000    1.0700438    304.95016   -694.48845   -7666.8314 
67600000    1.0700438    297.21856   -108.58782   -7792.3111 
67700000    1.0700438    299.62263   -427.35473    -7687.367 
67800000    1.0700438     312.2254   -261.45579   -7690.0252 
67900000    1.0700438    300.65219    30.924355   -7781.3939 
68000000    1.0700438    297.74529    1777.1301   -7721.2509 
68100000    1.0700438    294.49011    530.51541   -7794.9887 
68200000    1.0700438    292.91468   -647.21585   -7786.8873 
68300000    1.0700438      301.595   -645.11263   -7744.7575 
68400000    1.0700438    304.79408   -668.93174   -7611.8644 
68500000    1.0700438    300.97911    57.553696   -7728.6084 
68600000    1.0700438    297.82116   -661.87374   -7703.9785 
68700000    1.0700438    292.71158   -703.17678   -7794.4674 
68800000    1.0700438    289.54801   -575.83913   -7801.4627 
68900000    1.0700438    302.29739    219.83307   -7749.5762 
69000000    1.0700438    287.59947    513.81612   -7801.0729 
69100000    1.0700438    310.57254    18.301764   -7675.4019 
69200000    1.0700438    304.96423    20.727336   -7680.8218 
69300000    1.0700438     309.6531    648.22878   -7700.6218 
69400000    1.0700438    297.17477   -279.71902   -7740.7168 
69500000    1.0700438     300.1829    359.30515    -7721.672 
69600000    1.0700438    285.59079   -23.464956   -7789.7697 
69700000    1.0700438    303.49067   -61.310402   -7794.5686 
69800000    1.0700438    304.66634    420.08803   -7763.2152 
69900000    1.0700438    297.17781    34.838238   -7696.3612 
70000000    1.0700438    291.27475   -162.42743   -7766.0088 
70100000    1.0700438     288.2898    39.777096   -7751.5496 
70200000    1.0700438    310.03858    263.61297   -7662.0339 
70300000    1.0700438    296.36487   -155.07232   -7705.2282 
70400000    1.0700438    297.68199   -565.00069   -7722.7999 
70500000    1.0700438    292.54495   -543.65282   -7723.1524 
70600000    1.0700438    301.11147    95.734662   -7715.6426 
70700000    1.0700438    301.39589    -834.1869   -7749.4846 
70800000    1.0700438    288.30043    149.32589    -7817.984 
70900000    1.0700438     313.9155   -294.90031   -7678.2894 
71000000    1.0700438    289.81225   -545.50531   -7813.4651 
71100000    1.0700438    296.30045    739.12499    -7739.639 
71200000    1.0700438    290.26966    -790.0034   -7698.5058 
71300000    1.0700438    290.70252    420.49259   -7773.5141 
71400000    1.0700438    297.83581     802.5107   -7794.3018 
71500000    1.0700438    297.82417   -35.848056   -7746.4267 
71600000    1.0700438    314.92014    157.34847   -7675.1775 
71700000    1.0700438     287.8362   -108.85778   -7750.0715 
71800000    1.0700438    306.53619    749.13221   -7642.2905 
71900000    1.0700438    297.28703    750.24494   -7817.1586 
72000000    1.0700438    307.43567   -581.90968   -7639.2331 
72100000    1.0700438    290.78436    121.12081   -7758.1219 
72200000    1.0700438    311.01001   -579.97873   -7776.9481 
72300000    1.0700438    296.68742     357.4256   -7782.7533 
72400000    1.0700438    304.45796    220.30739   -7722.8585 
72500000    1.0700438     295.3267    645.06541   -7711.7301 
72600000    1.0700438    297.07471    -891.6563   -7741.6819 
72700000    1.0700438     302.2551   -327.61626   -7714.2704 
72800000    1.0700438    300.81895    610.99391   -7743.8291 
72900000    1.0700438     292.6877    619.91307   -7755.1868 
73000000    1.0700438    301.47937    -308.0364   -7739.0543 
73100000    1.0700438      298.593    173.77083   -7744.4277 
73200000    1.0700438    299.77101    1594.2201   -7657.5925 
73300000    1.0700438    280.18971    44.590923   -7711.8326 
73400000    1.0700438    282.90088   -287.29863   -7763.2564 
73500000    1.0700438    291.18957   -422.60862   -7826.4212 
73600000    1.0700438    309.00028    649.99517   -7637.0987 
73700000    1.0700438    307.80195     291.6273   -7712.6361 
73800000    1.0700438    282.18745    499.87082    -7808.405 
73900000    1.0700438    295.84527   -158.34638    -7757.539 
74000000    1.0700438    297.12771   -358.04523   -7635.5326 
74100000    1.0700438    292.94094     -403.616   -7768.0349 
74200000    1.0700438    300.07481    22.725076   -7727.2469 
74300000    1.0700438    307.46839    188.59871   -7687.7576 
74400000    1.0700438    308.43152    1203.2295      -7657.1 
74500000    1.0700438    298.78658    620.31486    -7687.929 
74600000    1.0700438    301.78084   -1468.7706   -7710.9754 
74700000    1.0700438     299.4721   -410.86327   -7725.8764 
74800000    1.0700438    295.17432    831.63865   -7718.3042 
74900000    1.0700438    295.21496    229.68345   -7703.3197 
75000000    1.0700438    292.03414    567.32515   -7751.4488 
75100000    1.0700438    304.42008   -155.11222   -7705.3176 
75200000    1.0700438    298.14649    133.16289   -7755.2428 
75300000    1.0700438    289.53032    352.08729   -7703.1873 
75400000    1.0700438    320.13001    1571.6014   -7687.9046 
75500000    1.0700438    293.25131   -194.32536   -7837.3112 
75600000    1.0700438    306.44239   -1050.2798    -7708.278 
75700000    1.0700438    300.41473   -152.76435   -7730.2946 
75800000    1.0700438    292.18605   -584.81113   -7729.3673 
75900000    1.0700438    305.62864    486.78667   -7713.4525 
76000000    1.0700438    294.50288    258.43085   -7716.3034 
76100000    1.0700438    291.86466   -106.67642   -7717.5991 
76200000    1.0700438    301.09176   -529.18177   -7673.9885 
76300000    1.0700438    292.25693    219.00299   -7762.1817 
76400000    1.0700438    300.65174    345.37511   -7701.6593 
76500000    1.0700438    290.75981   -525.45095   -7726.9955 
76600000    1.0700438    297.21106   -641.21224   -7710.5015 
76700000    1.0700438     295.8692   -217.76286   -7662.2076 
76800000    1.0700438    303.66605     1046.885   -7647.7569 
76900000    1.0700438    303.43719    -652.6354   -7637.2357 
77000000    1.0700438    300.13099   -128.50335   -7746.5161 
77100000    1.0700438    289.27149    284.10786   -7783.6692 
77200000    1.0700438     299.8446    90.477584   -7743.1363 
77300000    1.0700438    301.12638     99.71003   -7791.0786 
77400000    1.0700438    293.24004    416.81223   -7750.9883 
77500000    1.0700438      290.319     203.4375   -7704.1575 
77600000    1.0700438    298.32012    686.01352   -7703.6274 
77700000    1.0700438    303.22549    113.65985   -7718.3963 
77800000    1.0700438    298.57997    332.95731   -7683.5583 
77900000    1.0700438    300.97804    814.78806   -7763.6922 
78000000    1.0700438    300.25217    871.42573   -7688.8374 
78100000    1.0700438    307.95763    -712.0365   -7709.4582 
78200000    1.0700438    284.35837   -665.92321   -7796.3552 
78300000    1.0700438    295.50957   -601.00112   -7746.0519 
78400000    1.0700438    296.18067   -126.09198   -7797.0505 
78500000    1.0700438    302.30246    304.45337   -7804.0784 
78600000    1.0700438    294.23807    -82.51653   -7766.0281 
78700000    1.0700438    311.00887    138.73269   -7721.5163 
78800000    1.0700438    285.34766   -836.94019   -7791.3428 
78900000    1.0700438    298.15346   -113.14144   -7714.1353 
79000000    1.0700438    284.52921    161.52576   -7800.6478 
79100000    1.0700438    289.40624   -756.72181   -7755.5373 
79200000    1.0700438    292.82368    399.43606   -7732.7013 
79300000    1.0700438    289.83061    406.00815    -7728.369 
79400000    1.0700438    305.63534    427.81884   -7715.2983 
79500000    1.0700438    303.05167    284.55392   -7749.5423 
79600000    1.0700438    283.74128   -500.22376   -7827.2475 
79700000    1.0700438    300.36385   -859.25965    -7794.433 
79800000    1.0700438    312.02585    484.14741   -7668.9231 
79900000    1.0700438    300.85883    354.95714   -7796.7696 
80000000    1.0700438    292.92429    60.216181   -7779.0523 
80100000    1.0700438    288.46935    11.885107   -7753.1769 
80200000    1.0700438    290.92959   -654.10272   -7727.1054 
80300000    1.0700438    295.58327   -7.3809521    -7855.366 
80400000    1.0700438    300.19953   -70.690062   -7752.8051 
80500000    1.0700438    288.87474    152.40314   -7813.7623 
80600000    1.0700438    297.13806   -95.671447    -7647.604 
80700000    1.0700438    312.95236   -371.82737   -7691.9468 
80800000    1.0700438    309.74077    228.28732   -7730.3447 
80900000    1.0700438     300.9201    163.63381   -7649.7964 
81000000    1.0700438     294.1454    480.12512   -7710.1447 
81100000    1.0700438      304.553   -239.45037   -7679.2092 
81200000    1.0700438    296.34566   -191.66596   -7771.7239 
81300000    1.0700438    292.94418   -154.04257   -7741.7223 
81400000    1.0700438    298.15853    714.72254   -7734.8976 
81500000    1.0700438    301.75437    100.08539   -7747.4135 
81600000    1.0700438    303.03897    -149.8861   -7707.8014 
81700000    1.0700438    295.23689   -261.93951   -7771.4822 
81800000    1.0700438    292.07926    174.94215     -7759.94 
81900000    1.0700438    302.77088    966.92913   -7783.0185 
82000000    1.0700438    301.96481    -300.9951   -7741.7227 
82100000    1.0700438    306.22753   -18.373546   -7708.8127 
82200000    1.0700438    303.16236    1054.1045   -7788.9147 
82300000    1.0700438     302.1341    343.64571   -7751.8375 
82400000    1.0700438    300.32153    445.86872   -7749.2859 
82500000    1.0700438    295.22697   -642.04499   -7831.3832 
82600000    1.0700438    299.71654    841.96088   -7728.1948 
82700000    1.0700438    288.75762    92.016237   -7801.3641 
82800000    1.0700438    302.78169   -569.50801   -7697.4825 
82900000    1.0700438    298.80287    -1438.034    -7752.398 
83000000    1.0700438    303.69003     382.8607   -7696.7611 
83100000    1.0700438    302.09421    856.16658   -7756.5017 
83200000    1.0700438    296.55584   -108.77343   -7741.5864 
83300000    1.0700438    296.89104   -243.24374   -7779.3347 
83400000    1.0700438    290.99382    175.85958   -7738.6514 
83500000    1.0700438    296.23838   -386.00554   -7762.0927 
83600000    1.0700438    299.11413    297.06585   -7671.1063 
83700000    1.0700438    284.46045    196.32537   -7794.4645 
83800000    1.0700438    294.69782    -208.7548     -7752.75 
83900000    1.0700438    299.10642     205.4103   -7764.0896 
84000000    1.0700438    301.11695   -290.87033   -7712.4305 
84100000    1.0700438    305.91505    -2.524735    -7692.701 
84200000    1.0700438    294.10412   -945.25493    -7769.479 
84300000    1.0700438    301.81335    -452.6712    -7748.942 
84400000    1.0700438    300.93216   -613.09135   -7771.0992 
84500000    1.0700438    298.57778    -102.0946   -7692.6133 
84600000    1.0700438    311.05525    168.26012   -7727.2579 
84700000    1.0700438    282.37792     209.8992    -7877.109 
84800000    1.0700438    291.19501    542.16889    -7732.055 
84900000    1.0700438    308.07215   -566.88665   -7730.7498 
85000000    1.0700438    298.35701    306.64149   -7710.3187 
85100000    1.0700438    294.67447   -19.518384   -7787.4444 
85200000    1.0700438    295.57476    593.73529   -7760.4162 
85300000    1.0700438    298.76485   -62.478396   -7818.8303 
85400000    1.0700438    297.24284    372.27554   -7741.6353 
85500000    1.0700438    290.75533   -90.520783   -7747.8973 
85600000    1.0700438    299.58184    120.00901   -7747.5055 
85700000    1.0700438    297.29847   -545.17618   -7746.4087 
85800000    1.0700438    305.58215    197.50714   -7695.1538 
85900000    1.0700438     314.1637    66.086596   -7664.0812 
86000000    1.0700438    308.52537   -669.26798   -7643.9522 
86100000    1.0700438    308.25893    309.47115   -7669.1641 
86200000    1.0700438     289.0159    885.04772   -7748.9137 
86300000    1.0700438    294.62403     -205.133   -7819.3003 
86400000    1.0700438    298.04748    305.28663   -7777.7624 
86500000    1.0700438    297.35155    321.10128   -7731.1374 
86600000    1.0700438    309.80124    102.76535   -7724.3933 
86700000    1.0700438    287.44527    250.30845   -7704.4654 
86800000    1.0700438    304.08797   -126.81057   -7719.6735 
86900000    1.0700438    311.42391    573.60502   -7625.6359 
87000000    1.0700438    299.33021   -206.63897   -7741.1234 
87100000    1.0700438    308.21945    359.89962    -7740.066 
87200000    1.0700438    301.50208    494.69711    -7734.551 
87300000    1.0700438     285.8617   -11.960984   -7799.0832 
87400000    1.0700438    290.49376    -147.3089   -7746.4213 
87500000    1.0700438    301.73826    1939.7965   -7672.9971 
87600000    1.0700438    297.04704    304.70318   -7713.4837 
87700000    1.0700438    303.56366    182.51043    -7692.243 
87800000    1.0700438    298.18013    134.27027      -7773.6 
87900000    1.0700438    301.83977   -636.61508   -7744.6219 
88000000    1.0700438    299.07362    152.10502   -7721.9879 
88100000    1.0700438    302.22166   -1035.7368   -7768.1788 
88200000    1.0700438    303.11135   -3.4768197   -7714.2277 
88300000    1.0700438    305.56266    125.40368   -7688.0279 
88400000    1.0700438    305.84257    279.01513    -7702.623 
88500000    1.0700438    287.03319    -278.1116   -7867.3033 
88600000    1.0700438    294.87417    810.90169   -7773.0179 
88700000    1.0700438     304.1221    264.99216   -7743.4342 
88800000    1.0700438    290.00745   -955.56402   -7748.8879 
88900000    1.0700438    294.14806    259.45721   -7761.6266 
89000000    1.0700438     295.5706   -117.17779   -7707.7373 
89100000    1.0700438    296.50403     284.9332    -7717.234 
89200000    1.0700438    284.33962   -339.67988   -7810.2897 
89300000    1.0700438    302.46911   -771.01655   -7737.4029 
89400000    1.0700438    300.06627    28.057626   -7737.9782 
89500000    1.0700438    303.30241    -46.21238   -7721.1598 
89600000    1.0700438    304.96426    564.49208   -7663.0952 
89700000    1.0700438    291.74985   -802.40437   -7794.7894 
89800000    1.0700438    295.22485   -437.48522   -7733.9715 
89900000    1.0700438    293.02708    -74.91792   -7792.6993 
90000000    1.0700438    299.52465    177.92539   -7694.7366 
90100000    1.0700438    300.21061    672.00762   -7806.4956 
90200000    1.0700438    294.20357    275.09552    -7761.824 
90300000    1.0700438    300.65003   -222.42148   -7729.6745 
90400000    1.0700438    304.78242    482.39718   -7760.8958 
90500000    1.0700438    299.16902    405.87975   -7769.0566 
90600000    1.0700438    284.62062   -323.95968   -7733.6819 
90700000    1.0700438    310.54686    1011.5448     -7750.62 
90800000    1.0700438     301.6681    689.02973   -7756.8351 
90900000    1.0700438    305.31882   -277.25303   -7716.5301 
91000000    1.0700438    302.52645     466.1129   -7741.2855 
91100000    1.0700438    306.97969    921.99349   -7687.3424 
91200000    1.0700438    297.82019    73.679665   -7732.7276 
91300000    1.0700438    297.87995    264.84736   -7721.4697 
91400000    1.0700438    289.08175    1013.7455   -7819.3613 
91500000    1.0700438    282.63746    92.592075   -7786.8687 
91600000    1.0700438    300.59519    -19.14781   -7687.6284 
91700000    1.0700438    304.31133    -58.76008   -7821.1862 
91800000    1.0700438    300.15859   -161.81856   -7712.7695 
91900000    1.0700438    298.85317    106.06155   -7745.0253 
92000000    1.0700438    296.62114   -8.0868341   -7764.3069 
92100000    1.0700438    284.84032     466.9643   -7808.7938 
92200000    1.0700438    302.27555    727.72305   -7734.9327 
92300000    1.0700438    287.01143     -504.689   -7786.4665 
92400000    1.0700438    292.11863    298.42132   -7811.7661 
92500000    1.0700438    299.27068    1019.0136   -7800.8803 
92600000    1.0700438    300.52131    317.48951   -7687.1833 
92700000    1.0700438    300.45323   -13.127297   -7755.3354 
92800000    1.0700438    297.19573   -856.81777   -7728.6833 
92900000    1.0700438    305.88405    772.40386   -7691.0967 
93000000    1.0700438     294.3169    953.76723   -7768.4955 
93100000    1.0700438    298.16549   -155.02995   -7713.2981 
93200000    1.0700438    304.47346   -753.26405   -7741.6208 
93300000    1.0700438    295.00088   -671.09338   -7688.1241 
93400000    1.0700438    314.66908    757.60565   -7706.9773 
93500000    1.0700438    287.29643    211.69294   -7788.0929 
93600000    1.0700438    297.91127   -284.84597   -7730.6801 
93700000    1.0700438    293.01316    958.22388   -7761.6459 
93800000    1.0700438    297.86925    -129.5927   -7776.2727 
93900000    1.0700438    291.76057    99.134494    -7789.213 
94000000    1.0700438    312.61429    363.05002   -7702.0839 
94100000    1.0700438    305.23147   -560.10283   -7745.9778 
94200000    1.0700438    297.10146    246.11579   -7739.5817 
94300000    1.0700438    294.70446    975.01998   -7700.5859 
94400000    1.0700438    287.85508    720.92131   -7706.6238 
94500000    1.0700438    299.19433   -129.41739   -7751.6321 
94600000    1.0700438    307.52417   -798.62067   -7725.6653 
94700000    1.0700438    294.65308    1098.4449   -7726.7619 
94800000    1.0700438    294.37421   -135.69885   -7698.0278 
94900000    1.0700438    289.08007   -564.45016   -7705.6168 
95000000    1.0700438    292.09958    435.74579   -7776.1769 
95100000    1.0700438    296.56186    843.97061    -7806.103 
95200000    1.0700438    298.39241    1001.8076   -7742.3799 
95300000    1.0700438    306.26199    389.23747   -7742.9194 
95400000    1.0700438    292.21149   -657.42943   -7753.1434 
95500000    1.0700438     284.3913   -77.850687   -7807.5375 
95600000    1.0700438    298.08923    455.05476   -7844.6849 
95700000    1.0700438    302.73092    582.03071   -7702.0794 
95800000    1.0700438    298.44092   -359.06122   -7673.5715 
95900000    1.0700438    299.97813    159.65798   -7709.1847 
96000000    1.0700438    320.66011    1004.1044   -7638.8862 
96100000    1.0700438    309.20032    183.28376   -7665.6303 
96200000    1.0700438    296.90929    5.8734676    -7768.795 
96300000    1.0700438    296.42343    493.32114   -7665.2446 
96400000    1.0700438    312.16733    633.27221   -7709.2092 
96500000    1.0700438     300.1058   -258.31877   -7673.5572 
96600000    1.0700438     299.7585    864.00237    -7755.072 
96700000    1.0700438    301.15705   -358.65688   -7658.1013 
96800000    1.0700438    301.60115    277.99928   -7762.8885 
96900000    1.0700438    297.69338    102.05408   -7731.5093 
97000000    1.0700438    293.87726   -254.10838   -7725.8976 
97100000    1.0700438     301.7798    131.33643   -7728.0508 
97200000    1.0700438    307.60047    373.82347   -7683.4057 
97300000    1.0700438    294.25293   -892.11811   -7698.5293 
97400000    1.0700438    306.52225   -253.62043   -7684.2492 
97500000    1.0700438    295.07609    1063.3825   -7729.9557 
97600000    1.0700438    288.77725   -260.52851   -7757.7271 
97700000    1.0700438    290.72795   -707.12815   -7816.2583 
97800000    1.0700438    308.76293   -47.666254   -7589.6392 
97900000    1.0700438    290.16634   -324.04762   -7795.0994 
98000000    1.0700438    296.22192    176.15114   -7698.1712 
98100000    1.0700438    297.63303   -498.47149   -7697.0919 
98200000    1.0700438    296.55852   -576.34879    -7716.193 
98300000    1.0700438    287.50351    387.17667   -7772.9003 
98400000    1.0700438    285.02557   -894.99547   -7784.6113 
98500000    1.0700438    292.03457   -215.15217   -7793.1724 
98600000    1.0700438    299.67322   -628.66599   -7739.6282 
98700000    1.0700438    303.19013    89.276664   -7735.0502 
98800000    1.0700438    291.15391   -195.34926   -7816.3819 
98900000    1.0700438    304.52144    200.56514   -7720.7447 
99000000    1.0700438    301.19578   -941.49412   -7707.0196 
99100000    1.0700438     305.7443    568.46164   -7761.2701 
99200000    1.0700438    279.62851   -846.86861     -7880.84 
99300000    1.0700438    293.26679    760.08673    -7700.909 
99400000    1.0700438     303.9685    -156.9195   -7701.8816 
99500000    1.0700438    299.74795    292.80254    -7721.622 
99600000    1.0700438    296.43017    62.410954   -7785.4023 
99700000    1.0700438    286.98341   -582.83089   -7773.8563 
99800000    1.0700438    291.58145   -166.41936   -7819.0799 
99900000    1.0700438    314.51576    34.682412   -7620.7949 
100000000    1.0700438    301.19315    708.11272   -7672.2738 
Loop time of 96325.8 on 128 procs for 100000000 steps with 1705 atoms

Performance: 179.391 ns/day, 0.134 hours/ns, 1038.144 timesteps/s
99.2% CPU use with 128 MPI tasks x no OpenMP threads

MPI task timing breakdown:
Section |  min time  |  avg time  |  max time  |%varavg| %total
---------------------------------------------------------------
Pair    | 14388      | 17880      | 21590      |2275.3 | 18.56
Bond    | 218.53     | 297.28     | 453.82     | 297.4 |  0.31
Kspace  | 45559      | 49430      | 53086      |1405.1 | 51.32
Neigh   | 1860.5     | 1899.3     | 1944.8     |  43.0 |  1.97
Comm    | 8963.7     | 9941.7     | 10933      | 454.4 | 10.32
Output  | 39.835     | 47.669     | 49.201     |  22.4 |  0.05
Modify  | 15186      | 15656      | 16070      | 170.0 | 16.25
Other   |            | 1174       |            |       |  1.22

Nlocal:    13.3203 ave 19 max 7 min
Histogram: 2 7 10 14 18 34 16 11 11 5
Nghost:    2639.93 ave 2686 max 2585 min
Histogram: 3 5 9 16 19 27 14 22 5 8
Neighs:    5113.95 ave 8619 max 2231 min
Histogram: 3 11 16 28 25 17 5 13 6 4

Total # of neighbors = 654585
Ave neighs/atom = 383.921
Ave special neighs/atom = 1.95308
Neighbor list builds = 8102622
Dangerous builds = 0

JOB STATISTICS
==============
Job ID: 2423444
Cluster: snellius
User/Group: jellel/jellel
State: RUNNING
Nodes: 1
Cores per node: 128
CPU Utilized: 00:00:00
CPU Efficiency: 0.00% of 159-08:00:00 core-walltime
Job Wall-clock time: 1-05:52:30
Memory Utilized: 0.00 MB (estimated maximum)
Memory Efficiency: 0.00% of 128.00 GB (128.00 GB/node)
WARNING: Efficiency statistics may be misleading for RUNNING jobs.
